<?xml version="1.0"?>
<VTKFile type="UnstructuredGrid"  version="0.1"  >
<UnstructuredGrid>
<Piece  NumberOfPoints="1122" NumberOfCells="2077">
<Points>
<DataArray  type="Float64"  NumberOfComponents="3"  format="ascii">5.3 7.265 0  7.05 4.065 0  7.05 7.265 0  5.3 4.065 0  7.05 3.565 0  5.3 3.565 0  4.95 4.065 0  4.95 3.565 0  7.05 2.965 0  5.3 2.965 0  4.95 2.965 0  4.6 3.565 0  4.6 2.965 0  7.05 2.365 0  5.3 2.365 0  4.95 2.365 0  4.6 2.365 0  4.25 2.965 0  4.25 2.365 0  7.05 0 0  5.3 0 0  4.95 0 0  4.6 0 0  4.25 0 0  0 2.365 0  0 0 0  6.175 5.665 0  6.175 3.815 0  5.125 3.815 0  6.175 3.265 0  5.125 2.665 0  4.775 2.665 0  5.125 3.265 0  4.775 3.265 0  6.175 2.665 0  5.125 1.1825 0  4.775 1.1825 0  4.425 1.1825 0  4.425 2.665 0  6.175 1.1825 0  2.125 1.1825 0  7.05 5.888629622483688 0  5.3 5.441370377516312 0  6.210013736160064 4.065 0  6.175 3.565 0  5.3 3.870163890393343 0  4.95 3.759836109606658 0  6.175 2.965 0  5.3 2.712311099736245 0  4.95 2.665 0  4.6 2.665 0  4.95 3.265 0  5.3 3.312311099736244 0  4.6 3.217688900263754 0  6.175 2.365 0  5.3 1.1825 0  4.95 1.1825 0  4.6 1.1825 0  4.25 1.16962087603974 0  4.25 2.617688900263755 0  7.05 1.471030676090747 0  2.431857571898486 2.365 0  1.818142428101514 0 0  6.6125 4.865 0  6.629333272907139 3.685190493455103 0  5.713851351351352 3.423108108108108 0  5.7375 3.94 0  6.636148648648648 3.106891891891892 0  5.713851351351352 2.823108108108108 0  5.025580653828612 2.835433164865235 0  4.874419346171388 2.494566835134765 0  4.675580653828613 2.835433164865235 0  4.524419346171387 2.494566835134765 0  5.025580653828612 3.435433164865235 0  4.874419346171388 3.094566835134765 0  6.636148648648648 2.506891891891892 0  5.820468412007996 1.661624117486337 0  5.213442732999042 0.5848798184493331 0  5.036557267000958 1.780120181550667 0  4.863442732999042 0.5848798184493331 0  4.686557267000959 1.780120181550667 0  4.513442732999041 0.5848798184493331 0  3.1875 0.5912499999999999 0  7.05 4.976814811241844 0  6.6125 3.565 0  6.630006868080033 4.065 0  5.7375 3.565 0  5.755006868080033 4.065 0  6.6125 2.965 0  5.7375 2.965 0  4.95 2.815 0  5.125 2.965 0  4.95 2.515 0  4.800000000000001 2.365 0  4.6 2.815 0  4.775 2.965 0  4.6 2.515 0  4.449999999999999 2.365 0  4.95 3.415 0  5.125 3.565 0  4.95 3.114999999999999 0  6.6125 2.365 0  5.3 1.9275 0  5.3 0.5912500000000001 0  4.95 0.5912500000000001 0  4.95 1.77375 0  4.6 0.5912500000000001 0  4.6 1.77375 0  4.25 0.5848104380198699 0  3.034071214050757 0 0  6.83125 4.465 0  5.211822570533285 3.116161307657225 0  5.199644089736418 3.708365586090832 0  5.560234206003997 2.013312058743169 0  5.3 1.555 0  4.3375 1.77375 0  3.71875 0.295625 0  7.05 4.520907405620923 0  5.3 3.139999999999999 0  5.3 3.739999999999999 0  5.7375 2.365 0  5.080778633500479 1.481310090775334 0  4.25 1.76731043801987 0  3.642035607025378 0 0  4.95 1.478125 0  4.73077863350048 1.481310090775334 0  4.6 1.478125 0  4.38125 1.478125 0  4.25 1.468465657029805 0  1.0625 1.77375 0  0 1.1825 0  1.215928785949243 2.365 0  0.9090712140507571 0 0  3.340928785949243 2.365 0  5.3 6.353185188758156 0  5.7375 6.465 0  1.251926214046421 0.8638539258762323 0  2.998073785953579 1.501146074123768 0  6.6125 0.5912500000000001 0  6.314484661954626 0 0  7.05 0.7355153380453735 0  6.175 7.265 0  7.05 6.576814811241844 0  1.823893178923864 2.365 0  1.59375 1.478125 0  0 0.5912500000000001 0  2.426106821076136 0 0  2.65625 0.8868750000000001 0  5.3 4.753185188758156 0  6.384382461419411 6.63086506016126 0  5.965647764605047 4.698780141966616 0  5.95625 0.5512968727055005 0  3.573985453476257 1.146376094877751 0  0.6756920837505003 1.21855677338705 0  0 1.77375 0  0.5312499999999999 2.069375 0  0.6079643929746215 2.365 0  6.446593558696915 1.754199000482114 0  3.610596224419451 1.784975253492358 0  0.6394873570286449 0.5799959292452963 0  2.417022476128119 1.737785075476752 0  1.83297752387188 0.6272149245232482 0  6.39375 5.265000000000001 0  7.05 5.432722216862766 0  5.95625 6.065 0  5.3 5.897277783137234 0  1.363606821076136 0 0  2.886393178923864 2.365 0  5.807242330977314 0 0  5.66317075542392 5.097277783137233 0  6.531608295550142 6.093321366176391 0  6.39375 0.8868750000000001 0  7.05 1.10327300706806 0  1.519910982436554 1.97058461431516 0  2.730089017563446 0.3944153856848401 0  3.118321402239236 1.051513924837064 0  1.080031360230293 0.4321124510033665 0  1.131373342792352 1.313422525825128 0  3.170050834191505 1.932854926851105 0  2.299923182630591 0.5816821397526466 0  1.950076817369409 1.783317860247354 0  6.613181962233742 1.324697214951463 0  6.6125 7.265 0  7.05 6.920907405620921 0  5.51875 6.865 0  5.3 6.809092594379077 0  5.983458173428153 6.850120530156478 0  5.7375 0.9806135633003248 0  3.795464392974622 2.365 0  0.4545356070253785 0 0  5.707817604026098 5.669324080326772 0  6.382560485385842 4.479437374820383 0  7.05 1.918015338045373 0  2.588389785493746 1.326880192167154 0  1.703300758037187 1.049840817825812 0  3.81583399465085 0.749837075035683 0  0.3530001285220923 0.9165457830971103 0  5.7375 7.265 0  0.3230327290960819 1.478125 0  6.645222772803423 5.648779777756588 0  5.3 4.409092594379079 0  0.6966084743942642 1.616326964752643 0  5.95625 2.0342218763767 0  1.49184819442877 0.3932638652425394 0  2.659125375411175 2.045841681839123 0  5.614524271201718 0.3478746969228768 0  5.999107992102964 5.308994605056308 0  2.127875375411175 2.365 0  2.037600823622477 0.3085922016883884 0  3.93649851739085 2.000575559990484 0  3.906455196942886 1.319043266534772 0  0 0.295625 0  0.9119465894619322 2.365 0  0.7968749999999998 1.9215625 0  3.338053410538068 0 0  3.453125 0.4434374999999999 0  7.05 0.3677576690226868 0  6.83125 0.295625 0  6.682242330977314 0 0  6.668949774591622 6.886595444085661 0  5.68188834913787 4.441195406600733 0  6.758701711409929 5.204768514052305 0  5.59129828859007 6.125231485947695 0  6.163759209134029 4.993941590579597 0  6.233034970219983 6.300479647380988 0  6.703009859999504 6.429199314158878 0  5.609311330585206 1.36875 0  0.3587822425707757 0.3500213638980786 0  6.721382088515962 0.9965688100980222 0  2.209060623332511 2.022170427178749 0  5.3 5.097277783137233 0  7.05 6.232722216862767 0  6.059295437662608 4.370887739173418 0  0.8690637789301248 0.8872863262959064 0  3.466735784094473 0.8089436482612071 0  3.295985566969465 1.339922954220738 0  6.39375 2.096484771253884 0  6.711845829197576 1.970371788042478 0  6.060173353037894 0.8687877612331139 0  6.301258297484685 6.955053672984521 0  6.754921001691115 1.626730465232963 0  6.49836349646597 0.2780484381883498 0  6.284029928285962 0.5769414109938407 0  6.06086349646597 0 0  5.643646453505415 4.768412579276713 0  5.655197341664164 0.6682895817033545 0  2.872957907069126 1.801096788690002 0  4.6 0.295625 0  4.906721366499522 0.2924399092246666 0  4.55672136649952 0.2924399092246666 0  4.95 0.295625 0  3.568196589461933 2.1179624530524 0  3.620056836640555 1.464083854703579 0  3.927107481851438 1.660653323618258 0  0.7896275243076972 0.2971318722880981 0  6.12561317803929 1.761463214735561 0  6.326880341955087 1.460708780209755 0  1.429466162327612 1.207949778943681 0  2.296927843562433 1.446513085688053 0  1.980950224264427 0.9038259360937273 0  1.52702416133256 0.7076527164671081 0  0.4258514322303463 1.77420426839212 0  1.859375 1.3303125 0  2.390625 1.0346875 0  5.3 0.8868750000000001 0  5.169221366499521 0.8836899092246666 0  4.95 0.8868750000000001 0  4.819221366499521 0.8836899092246666 0  4.6 0.8868750000000001 0  4.46922136649952 0.8836899092246666 0  4.25 0.8772156570298049 0  6.140746550782823 0.3007326298726944 0  6.83125 3.565 0  7.05 3.265 0  6.83966663645357 3.625095246727552 0  7.05 2.665 0  1.214780807536237 2.049765590706595 0  3.186062312294412 0.276090769979388 0  4.29375 2.069375 0  4.6 2.069375 0  4.25 2.066155219009935 0  4.643278633500479 2.072560090775334 0  1.328125 1.6259375 0  3.946017803512689 0 0  3.984375 0.1478125 0  2.122124624588825 0 0  2.921875 0.7390625 0  0.3039821964873107 2.365 0  0.2656249999999999 2.2171875 0  1.519910982436554 2.365 0  2.730089017563446 0 0  3.267848714624348 1.643786705677805 0  3.962128140614412 0.4810864575242905 0  6.088735565830333 6.566440677959418 0  2.87287907903055 1.226769242480236 0  5.997734206003997 1.422062058743168 0  2.335585913229898 0.2848909091867997 0  1.915727811171581 2.080394075538645 0  5.3 0.295625 0  5.256721366499521 0.2924399092246666 0  0 1.478125 0  0 0.8868750000000001 0  4.95 2.069375 0  4.993278633500479 2.072560090775334 0  0 2.069375 0  4.25 0.2924052190099349 0  3.841572739148465 1.037556133343355 0  6.247685367118326 6.002851795106343 0  5.596179388183639 5.390271738108119 0  0.361226814135335 0.633338030484755 0  0.390270021626804 1.200123785848559 0  6.341029012534215 4.765551947817491 0  5.555765280690617 2.58528286847223 0  6.818326003308544 6.060675919673228 0  5.628125 6.665 0  5.3 6.581138891568616 0  6.721875 4.665 0  7.05 4.748861108431384 0  2.729013460599041 1.564984855461338 0  1.766005998581615 0.3591878959166037 0  6.83125 7.265 0  5.527503434040016 4.065 0  5.51875 4.0025 0  6.414708980099403 5.79017371349605 0  5.555816552627036 1.629876120346811 0  6.405574324324323 3.185945945945946 0  6.405574324324323 2.585945945945946 0  5.944425675675676 3.344054054054054 0  5.95625 2.965 0  5.944425675675676 2.744054054054054 0  6.83125 2.965 0  6.843074324324323 3.035945945945945 0  0.9539220190930711 1.522188675922875 0  5.875323973896693 0.2985022980005431 0  6.284375 5.465 0  1.28446357176077 0.6008092986991798 0  2.93210457621998 2.068557687752316 0  7.05 2.141507669022687 0  6.420010302120049 4.065 0  6.40216663645357 3.750095246727552 0  6.39375 3.565 0  5.846875 6.265 0  0.2127682824147084 1.9215625 0  0.607699940173331 0.8431476678143333 0  1.270397973338397 0.2479363044321548 0  5.826861590721315 1.225363214864182 0  5.895744270062652 4.959765766084354 0  1.590874624588825 0 0  5.553621165488657 0 0  3.113660982436554 2.365 0  1.050077073521563 0.7053514850398296 0  5.
[...]
<PointData  Vectors="f_19"> 
<DataArray  type="Float64"  Name="f_19"  NumberOfComponents="3" format="ascii">2.7973519249999829e-02 2.0407384999999861e-02 0.0000000000000000e+00  1.1649578624999928e-02 2.0204066249999885e-02 0.0000000000000000e+00  3.7210058624999806e-02 3.6108866249999802e-02 0.0000000000000000e+00  8.7578392499999373e-03 1.1418584999999926e-02 0.0000000000000000e+00  8.9600036249999470e-03 1.7718941249999908e-02 0.0000000000000000e+00  6.7358892499999609e-03 1.0014084999999947e-02 0.0000000000000000e+00  8.1794913749999552e-03 9.9602662499999363e-03 0.0000000000000000e+00  6.2910663749999492e-03 8.7351412499999323e-03 0.0000000000000000e+00  6.1978136249999502e-03 1.4736791249999898e-02 0.0000000000000000e+00  4.6593492499999644e-03 8.3286849999999503e-03 0.0000000000000000e+00  4.3516563749999692e-03 7.2649912499999584e-03 0.0000000000000000e+00  5.8462434999999643e-03 7.5435399999999554e-03 0.0000000000000000e+00  4.0439634999999774e-03 6.2739399999999501e-03 0.0000000000000000e+00  3.9432236249999789e-03 1.1754641249999934e-02 0.0000000000000000e+00  2.9644092499999820e-03 6.6432849999999649e-03 0.0000000000000000e+00  2.7686463749999829e-03 5.7948412499999585e-03 0.0000000000000000e+00  2.5728834999999813e-03 5.0043399999999726e-03 0.0000000000000000e+00  3.7362706249999740e-03 5.3555312499999610e-03 0.0000000000000000e+00  2.3771206249999827e-03 4.2717812499999744e-03 0.0000000000000000e+00  -1.2068904154670317e-20 -2.0401695371025300e-18 0.0000000000000000e+00  -1.3893163604228645e-20 -1.0408826477272464e-18 0.0000000000000000e+00  -1.2768696278767583e-20 -9.1670000224729360e-19 0.0000000000000000e+00  -1.3523704025336963e-20 -9.5326680029138515e-19 0.0000000000000000e+00  -5.9020152899801238e-21 -4.8186921096510619e-19 0.0000000000000000e+00  -1.5227389701507104e-19 -4.3809216027683273e-21 0.0000000000000000e+00  -1.7457736490458334e-22 -1.7169178862516875e-22 0.0000000000000000e+00  1.9816948937499853e-02 2.1600999062499845e-02 0.0000000000000000e+00  8.9872339374999343e-03 1.4546833437499906e-02 0.0000000000000000e+00  7.4590403124999514e-03 1.0020335937499928e-02 0.0000000000000000e+00  6.5826889374999628e-03 1.2449649062499922e-02 0.0000000000000000e+00  3.6398903124999827e-03 6.9997890624999611e-03 0.0000000000000000e+00  3.3913124374999790e-03 6.0763665624999630e-03 0.0000000000000000e+00  5.4633653124999690e-03 8.5757265624999360e-03 0.0000000000000000e+00  5.0902574374999676e-03 7.4444040624999496e-03 0.0000000000000000e+00  4.3856239374999726e-03 1.0161811562499944e-02 0.0000000000000000e+00  7.1663195312499659e-04 3.1059101562499834e-03 0.0000000000000000e+00  6.6769123437499629e-04 2.6961739062499840e-03 0.0000000000000000e+00  6.1875051562499620e-04 2.3154089062499845e-03 0.0000000000000000e+00  3.1427345624999766e-03 5.2182365624999609e-03 0.0000000000000000e+00  8.6345410937499446e-04 4.5089464062499770e-03 0.0000000000000000e+00  2.9714007812499849e-04 5.3397265624999691e-04 0.0000000000000000e+00  2.4446550975708473e-02 2.9267961381149413e-02 0.0000000000000000e+00  1.5692511140215248e-02 1.5284809390443211e-02 0.0000000000000000e+00  1.0261566422939914e-02 1.5676376000239994e-02 0.0000000000000000e+00  7.8479464374999423e-03 1.3593567812499900e-02 0.0000000000000000e+00  7.9384293254073420e-03 1.0871290368114838e-02 0.0000000000000000e+00  6.9975019476955112e-03 9.2125384275636574e-03 0.0000000000000000e+00  5.4285814374999642e-03 1.1305730312499925e-02 0.0000000000000000e+00  3.8990146959287644e-03 7.6188818791590538e-03 0.0000000000000000e+00  3.5156013749999770e-03 6.5299162499999619e-03 0.0000000000000000e+00  3.2670234999999746e-03 5.6391399999999592e-03 0.0000000000000000e+00  5.2768113749999601e-03 8.0000662499999479e-03 0.0000000000000000e+00  5.8148445553609972e-03 9.3042818791590313e-03 0.0000000000000000e+00  4.7626200550850359e-03 6.8086297129580572e-03 0.0000000000000000e+00  3.4538164374999800e-03 9.0178928124999419e-03 0.0000000000000000e+00  7.4110231249999419e-04 3.3216424999999786e-03 0.0000000000000000e+00  6.9216159374999487e-04 2.8974206249999779e-03 0.0000000000000000e+00  6.4322087499999586e-04 2.5021699999999802e-03 0.0000000000000000e+00  5.8140552230888311e-04 2.1126277073467660e-03 0.0000000000000000e+00  2.9122254508897045e-03 4.7282005761013724e-03 0.0000000000000000e+00  1.5255715312499903e-03 7.3113902178399883e-03 0.0000000000000000e+00  1.3601926567581839e-03 1.3986447406249905e-03 0.0000000000000000e+00  -7.4276010637442586e-21 -1.0652464033953758e-19 0.0000000000000000e+00  1.5650613781249934e-02 2.1272288515624897e-02 0.0000000000000000e+00  9.0030515518058907e-03 1.6195697160318909e-02 0.0000000000000000e+00  6.6953019534830875e-03 1.1175796646328562e-02 0.0000000000000000e+00  8.9066654999999401e-03 1.2970049062499923e-02 0.0000000000000000e+00  6.4057264556658276e-03 1.3682276191623254e-02 0.0000000000000000e+00  4.5539048954115211e-03 9.2169108104081885e-03 0.0000000000000000e+00  4.0404066464587050e-03 7.1613006886051796e-03 0.0000000000000000e+00  3.0332847183272508e-03 5.9270818104424890e-03 0.0000000000000000e+00  3.7590178033240847e-03 6.1985558807748338e-03 0.0000000000000000e+00  2.8154844890038505e-03 5.1064707152680064e-03 0.0000000000000000e+00  5.9312913170250104e-03 8.6766883430933646e-03 0.0000000000000000e+00  4.6679115957692224e-03 7.3526796481822726e-03 0.0000000000000000e+00  4.1704922354321031e-03 1.1039968058405588e-02 0.0000000000000000e+00  1.6070282482542333e-03 5.6292256821105025e-03 0.0000000000000000e+00  1.7834374398320943e-04 1.5897024768442240e-03 0.0000000000000000e+00  1.5959982990005810e-03 4.5156146839200112e-03 0.0000000000000000e+00  1.6637078991218332e-04 1.3834206338781583e-03 0.0000000000000000e+00  1.4850893238738444e-03 3.9098237495873286e-03 0.0000000000000000e+00  1.5439783584115667e-04 1.1914683464640976e-03 0.0000000000000000e+00  1.1142752929687424e-04 6.0071923828124640e-04 0.0000000000000000e+00  1.7461923394104201e-02 2.4736013815574623e-02 0.0000000000000000e+00  8.4039750312499550e-03 1.5588018203124904e-02 0.0000000000000000e+00  1.0955572523969920e-02 1.7868516870275387e-02 0.0000000000000000e+00  7.2919178437499494e-03 1.1735590078124906e-02 0.0000000000000000e+00  9.5097028364699073e-03 1.3463322296994944e-02 0.0000000000000000e+00  5.8131975312499659e-03 1.2964508828124915e-02 0.0000000000000000e+00  5.0439653437499687e-03 9.7604557031249206e-03 0.0000000000000000e+00  3.9224913749999705e-03 6.8974537499999480e-03 0.0000000000000000e+00  4.5055028124999673e-03 7.7877578124999356e-03 0.0000000000000000e+00  3.1309863749999743e-03 6.1623787499999532e-03 0.0000000000000000e+00  2.6847479999999851e-03 5.4489599999999628e-03 0.0000000000000000e+00  3.6451434999999711e-03 5.9565399999999625e-03 0.0000000000000000e+00  4.1978099374999729e-03 6.7603853124999554e-03 0.0000000000000000e+00  2.9096034999999817e-03 5.3217399999999577e-03 0.0000000000000000e+00  2.4889851249999817e-03 4.6832912499999747e-03 0.0000000000000000e+00  5.7728013749999583e-03 8.3676037499999453e-03 0.0000000000000000e+00  6.5134778124999529e-03 9.3636953124999322e-03 0.0000000000000000e+00  4.8030963749999657e-03 7.6325287499999332e-03 0.0000000000000000e+00  3.6985200312499764e-03 1.0340999453124937e-02 0.0000000000000000e+00  1.9690858124999868e-03 5.4143474999999641e-03 0.0000000000000000e+00  1.8527557812499882e-04 1.6608212499999897e-03 0.0000000000000000e+00  1.7304039843749882e-04 1.4487103124999911e-03 0.0000000000000000e+00  1.5573635859374899e-03 4.3461309374999771e-03 0.0000000000000000e+00  1.6080521874999902e-04 1.2510849999999923e-03 0.0000000000000000e+00  1.4472469687499894e-03 3.7532549999999779e-03 0.0000000000000000e+00  1.4535138057722089e-04 1.0563138536733832e-03 0.0000000000000000e+00  -8.9479006401814181e-21 -2.8074369178568974e-19 0.0000000000000000e+00  1.3618933703124912e-02 2.0836358535156092e-02 0.0000000000000000e+00  5.0609201349342400e-03 8.4644584098077531e-03 0.0000000000000000e+00  7.1505377195373041e-03 1.0026047952576059e-02 0.0000000000000000e+00  2.2537994815672508e-03 6.2243967180662992e-03 0.0000000000000000e+00  1.2815532499999942e-03 4.3679949999999744e-03 0.0000000000000000e+00  1.3646595058593618e-03 3.3371166210937335e-03 0.0000000000000000e+00  3.2499696044921666e-05 4.0882281494140373e-04 0.0000000000000000e+00  1.4409215657989565e-02 2.2470040032787238e-02 0.0000000000000000e+00  5.2255879999999503e-03 8.8202599999999305e-03 0.0000000000000000e+00  7.4134279999999468e-03 1.0505659999999917e-02 0.0000000000000000e+00  3.2091128437499766e-03 7.7853213281249608e-03 0.0000000000000000e+00  1.1148648831561018e-03 3.8239000144896932e-03 0.0000000000000000e+00  1.3274391283419355e-03 3.1922044786733728e-03 0.0000000000000000e+00  -5.7492270821894106e-21 -5.5560433223571535e-19 0.0000000000000000e+00  1.0815024902343679e-03 3.6217757812499699e-03 0.0000000000000000e+00  1.0380650976799550e-03 3.3152114569856969e-03 0.0000000000000000e+00  1.0050326171874920e-03 3.1277124999999793e-03 0.0000000000000000e+00  9.5723894653319580e-04 2.8373129028320151e-03 0.0000000000000000e+00  9.1646633899728348e-04 2.6524160930100613e-03 0.0000000000000000e+00  3.3428258789062305e-04 2.0023974609374888e-04 0.0000000000000000e+00  -6.3464191446031021e-20 -4.5611861004797590e-21 0.0000000000000000e+00  6.8009632837909219e-04 3.4966118515624789e-04 0.0000000000000000e+00  -3.1669436175250994e-21 -2.1667053166054073e-20 0.0000000000000000e+00  1.8686566408790822e-03 2.6397669186334679e-03 0.0000000000000000e+00  2.1392369882607540e-02 1.7846097195221552e-02 0.0000000000000000e+00  2.3980584093749837e-02 2.1282072890624851e-02 0.0000000000000000e+00  9.3424193147920379e-05 1.3539348832544996e-04 0.0000000000000000e+00  6.7559780006848315e-04 1.3492971064894700e-03 0.0000000000000000e+00  2.3115750195312355e-04 2.5852498632812290e-03 0.0000000000000000e+00  -1.8060887606985258e-20 -1.6417699143358080e-18 0.0000000000000000e+00  3.8139288281249724e-04 3.6556951089199963e-03 0.0000000000000000e+00  3.2591788937499838e-02 2.7701899062499806e-02 0.0000000000000000e+00  3.0494417608265725e-02 3.2688413815574531e-02 0.0000000000000000e+00  1.0201444925686358e-03 7.8673766660155729e-04 0.0000000000000000e+00  3.4821102905273246e-04 3.7544952392577888e-04 0.0000000000000000e+00  -1.3373143736330016e-20 -1.4266138676378112e-21 0.0000000000000000e+00  -8.6855160403548622e-21 -2.8218116601566258e-19 0.0000000000000000e+00  2.0892661743163922e-04 6.2574920654296436e-04 0.0000000000000000e+00  1.1974167802473786e-02 1.3351697195221595e-02 0.0000000000000000e+00  2.8071089951744458e-02 2.7027631045848158e-02 0.0000000000000000e+00  1.3171276190983858e-02 1.6722466681076041e-02 0.0000000000000000e+00  1.8102725905480257e-04 1.9558311775897939e-03 0.0000000000000000e+00  4.6968535946184941e-04 1.4643088336611079e-03 0.0000000000000000e+00  1.0033220734696219e-04 5.5634402705029157e-05 0.0000000000000000e+00  -1.7634280317249166e-19 -1.1925040754700620e-20 0.0000000000000000e+00  2.2749787231445145e-04 5.8403259277343278e-05 0.0000000000000000e+00  3.4004816418954604e-04 8.7415296289061945e-05 0.0000000000000000e+00  1.9837548810414077e-03 7.2901999343520331e-03 0.0000000000000000e+00  1.1503852979121861e-03 2.3269660490490207e-03 0.0000000000000000e+00  2.1512052720747852e-05 2.3718590157266137e-05 0.0000000000000000e+00  7.2991588485758448e-04 1.0152136327328746e-03 0.0000000000000000e+00  7.2109072123496544e-05 2.1073208449255663e-04 0.0000000000000000e+00  1.7723618859374894e-02 2.1523340566406118e-02 0.0000000000000000e+00  2.0807701833343843e-02 2.7001987598362011e-02 0.0000000000000000e+00  2.1909604015624862e-02 2.1516748378906117e-02 0.0000000000000000e+00  1.8432279183286385e-02 1.6565453292832391e-02 0.0000000000000000e+00  -3.8871448939310478e-21 -8.8474122522327171e-20 0.0000000000000000e+00  1.6144246488186361e-03 1.9703443104594730e-03 0.0000000000000000e+00  -1.3349347943619714e-20 -9.1843513852103629e-19 0.0000000000000000e+00  1.4714186625024486e-02 1.6347735973965667e-02 0.0000000000000000e+00  2.4250924492921377e-02 2.5995270899706591e-02 0.0000000000000000e+00  5.0289865795898113e-04 3.6255484643554470e-03 0.0000000000000000e+00  8.5813398632811973e-04 5.4835426633799943e-03 0.0000000000000000e+00  5.9021239843732004e-04 4.5523054419404496e-04 0.0000000000000000e+00  4.2470219323264863e-05 2.9397301311314669e-04 0.0000000000000000e+00  3.4478703919265649e-04 1.0224846082716016e-03 0.0000000000000000e+00  2.0166471955600807e-05 5.0404523375059844e-05 0.0000000000000000e+00  1.9517080908616112e-04 1.6811882417851667e-04 0.0000000000000000e+00  1.1843082206248585e-03 1.9423688816873606e-03 0.0000000000000000e+00  7.7818846545380527e-05 3.0768929795816187e-04 0.0000000000000000e+00  6.2016783481540466e-04 6.7816004342824139e-04 0.0000000000000000e+00  1.1604961901288268e-03 5.7934540702436156e-03 0.0000000000000000e+00  3.4900923781249760e-02 3.1766326015624777e-02 0.0000000000000000e+00  3.3768766318610657e-02 3.4398640032787149e-02 0.0000000000000000e+00  2.6008889171874841e-02 2.0908456972656139e-02 0.0000000000000000e+00  2.4572783238178679e-02 1.9126741097610703e-02 0.0000000000000000e+00  2.8076869649355959e-02 2.4524645142832004e-02 0.0000000000000000e+00  5.5171969860325759e-04 3.2280725957761582e-03 0.0000000000000000e+00  2.1228886329395370e-03 3.4069125651469702e-03 0.0000000000000000e+00  -1.8256190786760759e-21 -9.2695042199893849e-21 0.0000000000000000e+00  1.8345630996057079e-02 1.8470193990078949e-02 0.0000000000000000e+00  1.2806836872268216e-02 1.8247919130022262e-02 0.0000000000000000e+00  2.5935419000689872e-03 9.5330157339199636e-03 0.0000000000000000e+00  4.5571476434632286e-04 8.8897810676196614e-04 0.0000000000000000e+00  1.8773197451481499e-04 3.0458333212945906e-04 0.0000000000000000e+00  2.1454741813545334e-04 1.0918069522594278e-03 0.0000000000000000e+00  2.9653993686289775e-05 1.1420993665020751e-05 0.0000000000000000e+00  3.0282654093749802e-02 2.3915585390624845e-02 0.0000000000000000e+00  7.0577919382750837e-05 1.5424255669942164e-05 0.0000000000000000e+00  2.1204050612953960e-02 2.4944438542944699e-02 0.0000000000000000e+00  1.0303251678078402e-02 1.2385141097610767e-02 0.0000000000000000e+00  1.8198985956407494e-04 7.8434426443883611e-05 0.0000000000000000e+00  2.4647311788375172e-03 7.2167914692273299e-03 0.0000000000000000e+00  2.3072397210318357e-05 8.7525239823721049e-05 0.0000000000000000e+00  1.1129684664427601e-03 1.4466039661924965e-03 0.0000000000000000e+00  6.7945178754371088e-05 1.0966013297372087e-03 0.0000000000000000e+00  1.6908740067856459e-02 1.9106698202492001e-02 0.0000000000000000e+00  1.1901685746634105e-03 1.0708373795410102e-03 0.0000000000000000e+00  1.9403898824369087e-05 1.2812183849657339e-04 0.0000000000000000e+00  1.5755058137801262e-03 3.1000960044296581e-03 0.0000000000000000e+00  6.7967442787419908e-04 2.0129117583637304e-03 0.0000000000000000e+00  -3.3095608796765676e-21 -1.3918838699607499e-21 0.0000000000000000e+00  5.1007224628431865e-04 1.9668441665038921e-04 0.0000000000000000e+00  2.9423831954955825e-04 1.2202109527587802e-04 0.0000000000000000e+00  -8.8172372765291289e-21 -3.9389664039304905e-19 0.0000000000000000e+00  6.7901150665282699e-05 5.2875807952880492e-04 0.0000000000000000e+00  9.5348220703124676e-05 1.8278475544599990e-03 0.0000000000000000e+00  5.9701122314452718e-05 1.3795629321288990e-03 0.0000000000000000e+00  -1.7594519469967051e-20 -1.2962509424678255e-18 0.0000000000000000e+00  3.1627625557935420e-02 3.0628058239809425e-02 0.0000000000000000e+00  1.1207079672047883e-02 1.4337890947520171e-02 0.0000000000000000e+00  1.8309062918728781e-02 2.3775407983856536e-02 0.0000000000000000e+00  2.0977690541804317e-02 1.9149076323735907e-02 0.0000000000000000e+00  1.5372078069639201e-02 1.8972946728892201e-02 0.0000000000000000e+00  2.4742682910414031e-02 2.4477820177037219e-02 0.0000000000000000e+00  2.7706625697254749e-02 2.8886611872027700e-02 0.0000000000000000e+00  1.0508913309617007e-03 4.3066861369696636e-03 0.0000000000000000e+00  4.3956190369757624e-06 4.5056394215759336e-06 0.0000000000000000e+00  6.6753365430794723e-04 4.5021966391921645e-03 0.0000000000000000e+00  9.0332315788615981e-04 9.8680882254554886e-04 0.0000000000000000e+00  1.3770587623186063e-02 1.4318253292832397e-02 0.0000000000000000e+00  2.7387012493965017e-02 3.0978187598361972e-02 0.0000000000000000e+00  1.1576077692480256e-02 1.6047741084592230e-02 0.0000000000000000e+00  6.8419394626508632e-05 6.7014238678118887e-05 0.0000000000000000e+00  2.2685966267570068e-04 9.7220926606682886e-04 0.0000000000000000e+00  5.9175911396546160e-04 1.4556280960849066e-03 0.0000000000000000e+00  2.8102119432560670e-03 8.5704379342794561e-03 0.0000000000000000e+00  2.6057835219334339e-03 8.8763031269627601e-03 0.0000000000000000e+00  4.5741714203711092e-04 3.1906839611340432e-03 0.0000000000000000e+00  3.0480932837962358e-02 2.7615636052721416e-02 0.0000000000000000e+00  1.7875223254589204e-03 7.4226015651000813e-03 0.0000000000000000e+00  5.0239455124669381e-05 1.1741631903838964e-03 0.0000000000000000e+00  2.0917109475366425e-04 2.2782857921398144e-03 0.0000000000000000e+00  -1.8502360067676492e-20 -1.3012734074496530e-18 0.0000000000000000e+00  1.2832387026707540e-02 1.5187749451049353e-02 0.0000000000000000e+00  2.5256731421009559e-04 2.1372740844944043e-03 0.0000000000000000e+00  9.3197307747770665e-04 1.4866049614482824e-03 0.0000000000000000e+00  4.0201304687499721e-05 6.2554249999999679e-04 0.0000000000000000e+00  4.1962821114587323e-05 7.0407582709020868e-04 0.0000000000000000e+00  3.8969582596830708e-05 6.0721373540752177e-04 0.0000000000000000e+00  4.3260099609374699e-05 7.2435515624999611e-04 0.0000000000000000e+00  1.6006091204780100e-03 2.6965954927672042e-03 0.0000000000000000e+00  7.7597421833449601e-04 1.9186542936827466e-03 0.0000000000000000e+00  1.0830057084474101e-03 2.5610883138841795e-03 0.0000000000000000e+00  6.9714121236612125e-06 1.8526517716678411e-05 0.0000000000000000e+00  1.9006262563097968e-03 6.6095625186964723e-03 0.0000000000000000e+00  1.3499475668663887e-03 5.8471317754731373e-03 0.0000000000000000e+00  2.0857950705578047e-04 2.4682925787853716e-04 0.0000000000000000e+00  4.8060920657946529e-04 7.6316258690444275e-04 0.0000000000000000e+00  1.6182408585148085e-04 3.5467610117976693e-04 0.0000000000000000e+00  7.6469150392493939e-05 1.6501065781090527e-04 0.0000000000000000e+00  1.3404954730857326e-04 3.2175095465709335e-05 0.0000000000000000e+00  3.2905942245483157e-04 4.5992566680907863e-04 0.0000000000000000e+00  2.5593510635375815e-04 5.9133300018310189e-04 0.0000000000000000e+00  4.1687005078124776e-04 2.4912318749999857e-03 0.0000000000000000e+00  4.0366855727734058e-04 2.3612945100763361e-03 0.0000000000000000e+00  3.8934089648437264e-04 2.1730654687499859e-03 0.0000000000000000e+00  3.7633678232904747e-04 2.0523604982556512e-03 0.0000000000000000e+00  3.6181174218749746e-04 1.8766274999999857e-03 0.0000000000000000e+00  3.4900500738075529e-04 1.7650768892109613e-03 0.0000000000000000e+00  3.2704060629874652e-04 1.5844707805100745e-03 0.0000000000000000e+00  5.5536982221310415e-05 1.1340257030331799e-03 0.0000000000000000e+00  8.6819893281249432e-03 1.6636420644531150e-02 0.0000000000000000e+00  7.5154586249999546e-03 1.6227866249999900e-02 0.0000000000000000e+00  8.9882217511714907e-03 1.6958572464552495e-02 0.0000000000000000e+00  5.0070686249999710e-03 1.3245716249999916e-02 0.0000000000000000e+00  5.1039489111864161e-04 3.0248235252194888e-04 0.0000000000000000e+00  2.4286114669525714e-05 2.8025954893897028e-04 0.0000000000000000e+00  1.8387180974120971e-03 3.8151595678710638e-03 0.0000000000000000e+00  1.9698639296874868e-03 4.3787974999999714e-03 0.0000000000000000e+00  1.8143238903428362e-03 3.7319928643366651e-03 0.0000000000000000e+00  1.9945228118294286e-03 4.4684471139904720e-03 0.0000000000000000e+00  3.5111278762817172e-04 2.8680171966552476e-04 0.0000000000000000e+00  -1.5621741270044719e-20 -5.705880447