<?xml version="1.0"?>
<VTKFile type="UnstructuredGrid"  version="0.1"  >
<UnstructuredGrid>
<Piece  NumberOfPoints="1122" NumberOfCells="2077">
<Points>
<DataArray  type="Float64"  NumberOfComponents="3"  format="ascii">5.3 7.265 0  7.05 4.065 0  7.05 7.265 0  5.3 4.065 0  7.05 3.565 0  5.3 3.565 0  4.95 4.065 0  4.95 3.565 0  7.05 2.965 0  5.3 2.965 0  4.95 2.965 0  4.6 3.565 0  4.6 2.965 0  7.05 2.365 0  5.3 2.365 0  4.95 2.365 0  4.6 2.365 0  4.25 2.965 0  4.25 2.365 0  7.05 0 0  5.3 0 0  4.95 0 0  4.6 0 0  4.25 0 0  0 2.365 0  0 0 0  6.175 5.665 0  6.175 3.815 0  5.125 3.815 0  6.175 3.265 0  5.125 2.665 0  4.775 2.665 0  5.125 3.265 0  4.775 3.265 0  6.175 2.665 0  5.125 1.1825 0  4.775 1.1825 0  4.425 1.1825 0  4.425 2.665 0  6.175 1.1825 0  2.125 1.1825 0  7.05 5.888629622483688 0  5.3 5.441370377516312 0  6.210013736160064 4.065 0  6.175 3.565 0  5.3 3.870163890393343 0  4.95 3.759836109606658 0  6.175 2.965 0  5.3 2.712311099736245 0  4.95 2.665 0  4.6 2.665 0  4.95 3.265 0  5.3 3.312311099736244 0  4.6 3.217688900263754 0  6.175 2.365 0  5.3 1.1825 0  4.95 1.1825 0  4.6 1.1825 0  4.25 1.16962087603974 0  4.25 2.617688900263755 0  7.05 1.471030676090747 0  2.431857571898486 2.365 0  1.818142428101514 0 0  6.6125 4.865 0  6.629333272907139 3.685190493455103 0  5.713851351351352 3.423108108108108 0  5.7375 3.94 0  6.636148648648648 3.106891891891892 0  5.713851351351352 2.823108108108108 0  5.025580653828612 2.835433164865235 0  4.874419346171388 2.494566835134765 0  4.675580653828613 2.835433164865235 0  4.524419346171387 2.494566835134765 0  5.025580653828612 3.435433164865235 0  4.874419346171388 3.094566835134765 0  6.636148648648648 2.506891891891892 0  5.820468412007996 1.661624117486337 0  5.213442732999042 0.5848798184493331 0  5.036557267000958 1.780120181550667 0  4.863442732999042 0.5848798184493331 0  4.686557267000959 1.780120181550667 0  4.513442732999041 0.5848798184493331 0  3.1875 0.5912499999999999 0  7.05 4.976814811241844 0  6.6125 3.565 0  6.630006868080033 4.065 0  5.7375 3.565 0  5.755006868080033 4.065 0  6.6125 2.965 0  5.7375 2.965 0  4.95 2.815 0  5.125 2.965 0  4.95 2.515 0  4.800000000000001 2.365 0  4.6 2.815 0  4.775 2.965 0  4.6 2.515 0  4.449999999999999 2.365 0  4.95 3.415 0  5.125 3.565 0  4.95 3.114999999999999 0  6.6125 2.365 0  5.3 1.9275 0  5.3 0.5912500000000001 0  4.95 0.5912500000000001 0  4.95 1.77375 0  4.6 0.5912500000000001 0  4.6 1.77375 0  4.25 0.5848104380198699 0  3.034071214050757 0 0  6.83125 4.465 0  5.211822570533285 3.116161307657225 0  5.199644089736418 3.708365586090832 0  5.560234206003997 2.013312058743169 0  5.3 1.555 0  4.3375 1.77375 0  3.71875 0.295625 0  7.05 4.520907405620923 0  5.3 3.139999999999999 0  5.3 3.739999999999999 0  5.7375 2.365 0  5.080778633500479 1.481310090775334 0  4.25 1.76731043801987 0  3.642035607025378 0 0  4.95 1.478125 0  4.73077863350048 1.481310090775334 0  4.6 1.478125 0  4.38125 1.478125 0  4.25 1.468465657029805 0  1.0625 1.77375 0  0 1.1825 0  1.215928785949243 2.365 0  0.9090712140507571 0 0  3.340928785949243 2.365 0  5.3 6.353185188758156 0  5.7375 6.465 0  1.251926214046421 0.8638539258762323 0  2.998073785953579 1.501146074123768 0  6.6125 0.5912500000000001 0  6.314484661954626 0 0  7.05 0.7355153380453735 0  6.175 7.265 0  7.05 6.576814811241844 0  1.823893178923864 2.365 0  1.59375 1.478125 0  0 0.5912500000000001 0  2.426106821076136 0 0  2.65625 0.8868750000000001 0  5.3 4.753185188758156 0  6.384382461419411 6.63086506016126 0  5.965647764605047 4.698780141966616 0  5.95625 0.5512968727055005 0  3.573985453476257 1.146376094877751 0  0.6756920837505003 1.21855677338705 0  0 1.77375 0  0.5312499999999999 2.069375 0  0.6079643929746215 2.365 0  6.446593558696915 1.754199000482114 0  3.610596224419451 1.784975253492358 0  0.6394873570286449 0.5799959292452963 0  2.417022476128119 1.737785075476752 0  1.83297752387188 0.6272149245232482 0  6.39375 5.265000000000001 0  7.05 5.432722216862766 0  5.95625 6.065 0  5.3 5.897277783137234 0  1.363606821076136 0 0  2.886393178923864 2.365 0  5.807242330977314 0 0  5.66317075542392 5.097277783137233 0  6.531608295550142 6.093321366176391 0  6.39375 0.8868750000000001 0  7.05 1.10327300706806 0  1.519910982436554 1.97058461431516 0  2.730089017563446 0.3944153856848401 0  3.118321402239236 1.051513924837064 0  1.080031360230293 0.4321124510033665 0  1.131373342792352 1.313422525825128 0  3.170050834191505 1.932854926851105 0  2.299923182630591 0.5816821397526466 0  1.950076817369409 1.783317860247354 0  6.613181962233742 1.324697214951463 0  6.6125 7.265 0  7.05 6.920907405620921 0  5.51875 6.865 0  5.3 6.809092594379077 0  5.983458173428153 6.850120530156478 0  5.7375 0.9806135633003248 0  3.795464392974622 2.365 0  0.4545356070253785 0 0  5.707817604026098 5.669324080326772 0  6.382560485385842 4.479437374820383 0  7.05 1.918015338045373 0  2.588389785493746 1.326880192167154 0  1.703300758037187 1.049840817825812 0  3.81583399465085 0.749837075035683 0  0.3530001285220923 0.9165457830971103 0  5.7375 7.265 0  0.3230327290960819 1.478125 0  6.645222772803423 5.648779777756588 0  5.3 4.409092594379079 0  0.6966084743942642 1.616326964752643 0  5.95625 2.0342218763767 0  1.49184819442877 0.3932638652425394 0  2.659125375411175 2.045841681839123 0  5.614524271201718 0.3478746969228768 0  5.999107992102964 5.308994605056308 0  2.127875375411175 2.365 0  2.037600823622477 0.3085922016883884 0  3.93649851739085 2.000575559990484 0  3.906455196942886 1.319043266534772 0  0 0.295625 0  0.9119465894619322 2.365 0  0.7968749999999998 1.9215625 0  3.338053410538068 0 0  3.453125 0.4434374999999999 0  7.05 0.3677576690226868 0  6.83125 0.295625 0  6.682242330977314 0 0  6.668949774591622 6.886595444085661 0  5.68188834913787 4.441195406600733 0  6.758701711409929 5.204768514052305 0  5.59129828859007 6.125231485947695 0  6.163759209134029 4.993941590579597 0  6.233034970219983 6.300479647380988 0  6.703009859999504 6.429199314158878 0  5.609311330585206 1.36875 0  0.3587822425707757 0.3500213638980786 0  6.721382088515962 0.9965688100980222 0  2.209060623332511 2.022170427178749 0  5.3 5.097277783137233 0  7.05 6.232722216862767 0  6.059295437662608 4.370887739173418 0  0.8690637789301248 0.8872863262959064 0  3.466735784094473 0.8089436482612071 0  3.295985566969465 1.339922954220738 0  6.39375 2.096484771253884 0  6.711845829197576 1.970371788042478 0  6.060173353037894 0.8687877612331139 0  6.301258297484685 6.955053672984521 0  6.754921001691115 1.626730465232963 0  6.49836349646597 0.2780484381883498 0  6.284029928285962 0.5769414109938407 0  6.06086349646597 0 0  5.643646453505415 4.768412579276713 0  5.655197341664164 0.6682895817033545 0  2.872957907069126 1.801096788690002 0  4.6 0.295625 0  4.906721366499522 0.2924399092246666 0  4.55672136649952 0.2924399092246666 0  4.95 0.295625 0  3.568196589461933 2.1179624530524 0  3.620056836640555 1.464083854703579 0  3.927107481851438 1.660653323618258 0  0.7896275243076972 0.2971318722880981 0  6.12561317803929 1.761463214735561 0  6.326880341955087 1.460708780209755 0  1.429466162327612 1.207949778943681 0  2.296927843562433 1.446513085688053 0  1.980950224264427 0.9038259360937273 0  1.52702416133256 0.7076527164671081 0  0.4258514322303463 1.77420426839212 0  1.859375 1.3303125 0  2.390625 1.0346875 0  5.3 0.8868750000000001 0  5.169221366499521 0.8836899092246666 0  4.95 0.8868750000000001 0  4.819221366499521 0.8836899092246666 0  4.6 0.8868750000000001 0  4.46922136649952 0.8836899092246666 0  4.25 0.8772156570298049 0  6.140746550782823 0.3007326298726944 0  6.83125 3.565 0  7.05 3.265 0  6.83966663645357 3.625095246727552 0  7.05 2.665 0  1.214780807536237 2.049765590706595 0  3.186062312294412 0.276090769979388 0  4.29375 2.069375 0  4.6 2.069375 0  4.25 2.066155219009935 0  4.643278633500479 2.072560090775334 0  1.328125 1.6259375 0  3.946017803512689 0 0  3.984375 0.1478125 0  2.122124624588825 0 0  2.921875 0.7390625 0  0.3039821964873107 2.365 0  0.2656249999999999 2.2171875 0  1.519910982436554 2.365 0  2.730089017563446 0 0  3.267848714624348 1.643786705677805 0  3.962128140614412 0.4810864575242905 0  6.088735565830333 6.566440677959418 0  2.87287907903055 1.226769242480236 0  5.997734206003997 1.422062058743168 0  2.335585913229898 0.2848909091867997 0  1.915727811171581 2.080394075538645 0  5.3 0.295625 0  5.256721366499521 0.2924399092246666 0  0 1.478125 0  0 0.8868750000000001 0  4.95 2.069375 0  4.993278633500479 2.072560090775334 0  0 2.069375 0  4.25 0.2924052190099349 0  3.841572739148465 1.037556133343355 0  6.247685367118326 6.002851795106343 0  5.596179388183639 5.390271738108119 0  0.361226814135335 0.633338030484755 0  0.390270021626804 1.200123785848559 0  6.341029012534215 4.765551947817491 0  5.555765280690617 2.58528286847223 0  6.818326003308544 6.060675919673228 0  5.628125 6.665 0  5.3 6.581138891568616 0  6.721875 4.665 0  7.05 4.748861108431384 0  2.729013460599041 1.564984855461338 0  1.766005998581615 0.3591878959166037 0  6.83125 7.265 0  5.527503434040016 4.065 0  5.51875 4.0025 0  6.414708980099403 5.79017371349605 0  5.555816552627036 1.629876120346811 0  6.405574324324323 3.185945945945946 0  6.405574324324323 2.585945945945946 0  5.944425675675676 3.344054054054054 0  5.95625 2.965 0  5.944425675675676 2.744054054054054 0  6.83125 2.965 0  6.843074324324323 3.035945945945945 0  0.9539220190930711 1.522188675922875 0  5.875323973896693 0.2985022980005431 0  6.284375 5.465 0  1.28446357176077 0.6008092986991798 0  2.93210457621998 2.068557687752316 0  7.05 2.141507669022687 0  6.420010302120049 4.065 0  6.40216663645357 3.750095246727552 0  6.39375 3.565 0  5.846875 6.265 0  0.2127682824147084 1.9215625 0  0.607699940173331 0.8431476678143333 0  1.270397973338397 0.2479363044321548 0  5.826861590721315 1.225363214864182 0  5.895744270062652 4.959765766084354 0  1.590874624588825 0 0  5.553621165488657 0 0  3.113660982436554 2.365 0  1.050077073521563 0.7053514850398296 0  5.
[...]
<PointData  Vectors="f_126"> 
<DataArray  type="Float64"  Name="f_126"  NumberOfComponents="3" format="ascii">2.9779376018912750e-14 2.3234972322854331e-15 0.0000000000000000e+00  5.4943065780219626e-15 -5.6970623462670904e-15 0.0000000000000000e+00  2.7943644898535756e-14 -1.2446257822905938e-14 0.0000000000000000e+00  4.4932766157884067e-15 1.8644956871818644e-15 0.0000000000000000e+00  3.6347709655618460e-15 -4.6410139373869583e-15 0.0000000000000000e+00  3.0720271805969496e-15 1.1331025609281007e-15 0.0000000000000000e+00  4.1914494201579134e-15 1.7762071513891750e-15 0.0000000000000000e+00  3.0639014786700212e-15 1.7491556809349311e-15 0.0000000000000000e+00  1.8919421828208362e-15 -3.5543176072651803e-15 0.0000000000000000e+00  1.5748322940165535e-15 7.3452506080241761e-16 0.0000000000000000e+00  1.5715301295732137e-15 1.2466600298255669e-15 0.0000000000000000e+00  3.0536885595328598e-15 2.1855180471812458e-15 0.0000000000000000e+00  1.4273445456494921e-15 1.4173340621208777e-15 0.0000000000000000e+00  7.2006102752411698e-16 -2.5098181981261617e-15 0.0000000000000000e+00  8.3456203588953250e-16 4.8011289289999616e-16 0.0000000000000000e+00  9.5073604769431130e-16 8.5026472514596744e-16 0.0000000000000000e+00  9.4763695893013985e-16 9.2168034121804261e-16 0.0000000000000000e+00  1.2140595458253007e-15 8.6094234426656744e-16 0.0000000000000000e+00  7.9842981959371610e-16 8.5674583973802553e-16 0.0000000000000000e+00  -2.6741939565897158e-16 -2.0136466293453120e-18 0.0000000000000000e+00  -3.5242398662145309e-16 -1.0384786708140609e-18 0.0000000000000000e+00  -2.9661234777894449e-16 -8.9866195653562876e-19 0.0000000000000000e+00  -2.2277269370939731e-16 -9.8544279050839007e-19 0.0000000000000000e+00  -1.4763473260069270e-16 -4.8817402452648578e-19 0.0000000000000000e+00  -1.5706858382785064e-19 -4.1315013982893405e-17 0.0000000000000000e+00  -1.8753289437140726e-22 -1.7657512176558395e-22 0.0000000000000000e+00  1.5295142867532642e-14 -3.4045018371925313e-15 0.0000000000000000e+00  4.0883326513315454e-15 -1.7585295343818680e-15 0.0000000000000000e+00  3.8848978710153563e-15 1.5794582005913204e-15 0.0000000000000000e+00  2.4077094499676239e-15 -1.1586172805615143e-15 0.0000000000000000e+00  1.2160729704353726e-15 8.5890948597571462e-16 0.0000000000000000e+00  1.2219784430367174e-15 1.1068388809977162e-15 0.0000000000000000e+00  2.2596922116659443e-15 1.2311896144518841e-15 0.0000000000000000e+00  2.3210478955313733e-15 1.6973707140020096e-15 0.0000000000000000e+00  1.0812291542706450e-15 -8.2940600118132782e-16 0.0000000000000000e+00  -9.8909564117979164e-17 1.9875415809727072e-16 0.0000000000000000e+00  -1.2382159796020108e-17 3.3507717588229944e-16 0.0000000000000000e+00  6.3224772477111101e-17 4.0046319933889864e-16 0.0000000000000000e+00  1.2680606995330409e-15 1.0018859631713618e-15 0.0000000000000000e+00  -2.4031271120129978e-16 -4.7941195354631412e-16 0.0000000000000000e+00  1.2243376618211614e-16 7.7778594449497285e-17 0.0000000000000000e+00  1.7106890762359755e-14 -1.0438083470470660e-14 0.0000000000000000e+00  1.3918671219700974e-14 3.3326713591332047e-15 0.0000000000000000e+00  5.2122597272288824e-15 -2.1267583548863253e-15 0.0000000000000000e+00  3.2463933149482686e-15 -1.4995562032346434e-15 0.0000000000000000e+00  4.0116468695662253e-15 1.4028787257262694e-15 0.0000000000000000e+00  3.7528990398495927e-15 1.9270243841817989e-15 0.0000000000000000e+00  1.7122289883231091e-15 -1.0067642954327275e-15 0.0000000000000000e+00  1.2147567571111216e-15 5.6257838045960600e-16 0.0000000000000000e+00  1.2052097234886277e-15 1.0236938477298441e-15 0.0000000000000000e+00  1.2401150198299092e-15 1.0731532764320299e-15 0.0000000000000000e+00  2.2821607151894227e-15 1.4385302164392744e-15 0.0000000000000000e+00  2.3048042281923098e-15 8.8764843197100242e-16 0.0000000000000000e+00  2.2327405471927402e-15 2.0361221319778155e-15 0.0000000000000000e+00  6.2002005182099700e-16 -8.4123341114490917e-16 0.0000000000000000e+00  -1.4400807611977188e-16 9.5913265492853737e-17 0.0000000000000000e+00  -5.1560502328344707e-17 2.7081957897377953e-16 0.0000000000000000e+00  2.7110324686826089e-17 3.7393396933104183e-16 0.0000000000000000e+00  9.2508848710369449e-17 4.1593442528073881e-16 0.0000000000000000e+00  1.2294714933466110e-15 1.0219752970967246e-15 0.0000000000000000e+00  -3.5630352188878803e-17 -1.2395523201813731e-15 0.0000000000000000e+00  5.8843226432692885e-17 9.9557038765709524e-17 0.0000000000000000e+00  1.0483208116977646e-16 -1.0101645904575307e-19 0.0000000000000000e+00  9.2143796803350353e-15 -5.1504830672613687e-15 0.0000000000000000e+00  3.8821049303801201e-15 -3.2624998714737993e-15 0.0000000000000000e+00  2.6554486863682623e-15 5.4457014105753308e-17 0.0000000000000000e+00  4.2784378554747000e-15 3.0860635007056979e-18 0.0000000000000000e+00  2.1461860183889470e-15 -2.4770551367938627e-15 0.0000000000000000e+00  1.3213542383955394e-15 -9.1145779034481452e-18 0.0000000000000000e+00  1.4020010293590984e-15 1.0568181771435534e-15 0.0000000000000000e+00  1.0526239393519058e-15 9.2723679794238278e-16 0.0000000000000000e+00  1.3780896244645407e-15 1.2475517537091258e-15 0.0000000000000000e+00  1.0821961190122949e-15 9.4507663974451633e-16 0.0000000000000000e+00  2.7429649882794800e-15 1.5106068497326748e-15 0.0000000000000000e+00  1.8001118083196573e-15 1.3642266904435253e-15 0.0000000000000000e+00  8.8156053225920738e-16 -1.8404172482926444e-15 0.0000000000000000e+00  -1.3838867123784407e-17 -3.3434198316465970e-16 0.0000000000000000e+00  -2.9591393159777657e-16 5.1734208617406822e-17 0.0000000000000000e+00  3.1524595357571192e-16 4.7572381535532067e-16 0.0000000000000000e+00  -2.2865937355201669e-16 1.2715647060508484e-16 0.0000000000000000e+00  3.9317270193257003e-16 6.2924631052191303e-16 0.0000000000000000e+00  -1.4840422495045853e-16 1.6522999107285399e-16 0.0000000000000000e+00  9.3787789413486177e-17 1.5656549338239330e-16 0.0000000000000000e+00  1.0025323135256073e-14 -7.8018410210682948e-15 0.0000000000000000e+00  3.4925248361852372e-15 -3.0601324840927546e-15 0.0000000000000000e+00  5.4462180524685098e-15 -3.8951175758958357e-15 0.0000000000000000e+00  3.0146075478939255e-15 1.4754411479354526e-17 0.0000000000000000e+00  4.8676670850537027e-15 -1.5565424552010201e-16 0.0000000000000000e+00  1.8000009676040783e-15 -2.2509391878821861e-15 0.0000000000000000e+00  1.5865881921518407e-15 -3.2456222063590497e-17 0.0000000000000000e+00  1.3691577054361539e-15 1.1261130296090241e-15 0.0000000000000000e+00  1.5804727096107618e-15 9.8217111825169031e-16 0.0000000000000000e+00  1.0471382191866809e-15 9.0331816828654894e-16 0.0000000000000000e+00  9.7505949759283217e-16 8.8246796295138147e-16 0.0000000000000000e+00  1.3603597281806362e-15 1.1835353334134666e-15 0.0000000000000000e+00  1.5339999608522527e-15 1.3649403250025644e-15 0.0000000000000000e+00  1.0990880376905450e-15 9.7763681187851292e-16 0.0000000000000000e+00  9.0919063054585918e-16 8.9076367282219429e-16 0.0000000000000000e+00  2.6958171662159346e-15 1.5868538470689402e-15 0.0000000000000000e+00  3.0798933962970165e-15 1.4183117374681526e-15 0.0000000000000000e+00  1.8417258299818574e-15 1.2754566609283280e-15 0.0000000000000000e+00  6.4378119627100891e-16 -1.6485863607555926e-15 0.0000000000000000e+00  3.6009059683544611e-16 3.1215272776203578e-16 0.0000000000000000e+00  -3.0796467771554389e-16 2.7476205046924942e-17 0.0000000000000000e+00  -2.4607836208961735e-16 1.1052614989527001e-16 0.0000000000000000e+00  3.3333448811389394e-16 5.4369921837699134e-16 0.0000000000000000e+00  -1.6994913224127203e-16 1.5937041024741990e-16 0.0000000000000000e+00  4.0041483759525816e-16 6.3824346024677814e-16 0.0000000000000000e+00  -8.7192885298133108e-17 1.8979374473846228e-16 0.0000000000000000e+00  7.3824231219812437e-17 -2.6579799955887555e-19 0.0000000000000000e+00  7.1749426950877088e-15 -5.6420735265209703e-15 0.0000000000000000e+00  1.8212243587891577e-15 9.2429291234019408e-16 0.0000000000000000e+00  3.5298428534268201e-15 1.3668949472248152e-15 0.0000000000000000e+00  3.5247628960442322e-16 4.3047745281442611e-17 0.0000000000000000e+00  5.6895373177352944e-17 1.8891176529856904e-16 0.0000000000000000e+00  4.3356469858695998e-16 6.5442877953613272e-16 0.0000000000000000e+00  -1.6923337839384305e-17 1.0456565161411348e-16 0.0000000000000000e+00  7.4595447006929801e-15 -6.7481080528950717e-15 0.0000000000000000e+00  1.8712705667867534e-15 7.7157628162081697e-16 0.0000000000000000e+00  3.6315096297981745e-15 1.2122287797998327e-15 0.0000000000000000e+00  7.1355043172592309e-16 -1.2658048988584141e-16 0.0000000000000000e+00  6.9147001454217621e-17 3.0903470150948614e-16 0.0000000000000000e+00  4.3103307983955803e-16 6.4169581597123649e-16 0.0000000000000000e+00  -1.4410428536558200e-17 -5.6915388676784373e-19 0.0000000000000000e+00  1.0197922220516247e-16 3.7146395260183633e-16 0.0000000000000000e+00  1.5946592287648145e-16 4.4908275582528487e-16 0.0000000000000000e+00  1.9216977024608537e-16 4.8355171925773822e-16 0.0000000000000000e+00  2.2528685771147382e-16 5.2399032106174850e-16 0.0000000000000000e+00  2.4337569187133905e-16 5.4478657105671591e-16 0.0000000000000000e+00  4.0463523100427984e-17 -6.9583472578457685e-18 0.0000000000000000e+00  -6.2470230595409376e-20 -2.0460760770696821e-17 0.0000000000000000e+00  3.2992171647737861e-17 -8.9293580865375284e-18 0.0000000000000000e+00  6.0245353194908586e-17 -2.0528720483099664e-20 0.0000000000000000e+00  2.3827072230689266e-16 3.6729270598905946e-16 0.0000000000000000e+00  2.1648716898844362e-14 3.0793286456472739e-15 0.0000000000000000e+00  2.2196810719601770e-14 -8.6371127997266158e-16 0.0000000000000000e+00  7.6885870090979495e-17 9.5073596533477280e-18 0.0000000000000000e+00  1.9969075687373904e-16 2.6809735712053763e-16 0.0000000000000000e+00  -3.0978438706854981e-16 -3.8965444522740692e-16 0.0000000000000000e+00  -3.8070079852608307e-16 -1.6460800198371077e-18 0.0000000000000000e+00  -2.0851160162933498e-16 -5.8727710960539568e-16 0.0000000000000000e+00  2.8749209948926786e-14 -5.4579485056154517e-15 0.0000000000000000e+00  2.2706205634411549e-14 -1.1713440409842520e-14 0.0000000000000000e+00  5.9230536536807212e-17 2.8249118655822761e-17 0.0000000000000000e+00  7.8162335161726219e-17 2.6065534567228788e-17 0.0000000000000000e+00  -1.3688958543713906e-20 -9.8294305985141462e-18 0.0000000000000000e+00  1.0881619858585260e-16 -2.8369512671782628e-19 0.0000000000000000e+00  1.4059292161658263e-16 1.3737479231095587e-16 0.0000000000000000e+00  8.9052219616634619e-15 2.7624909453991446e-15 0.0000000000000000e+00  2.3475112754404948e-14 -6.3064755246677009e-15 0.0000000000000000e+00  8.3738874172875844e-15 -1.3750672558039701e-15 0.0000000000000000e+00  -3.6194813313095036e-16 -1.5280816946946634e-16 0.0000000000000000e+00  1.6626334213493689e-16 3.6016809063272812e-16 0.0000000000000000e+00  3.6907918415521901e-17 -1.3653832628792518e-17 0.0000000000000000e+00  -1.8156747365577695e-19 -3.0187870450747786e-17 0.0000000000000000e+00  1.6852172437388842e-17 -2.8438517975890592e-17 0.0000000000000000e+00  1.3132197905903045e-17 -3.0108534548249234e-17 0.0000000000000000e+00  1.1540698559694219e-17 -9.6306990985249889e-16 0.0000000000000000e+00  3.4036267599032221e-16 4.7536006511464494e-16 0.0000000000000000e+00  4.1804352193490426e-17 -5.4378556390216641e-18 0.0000000000000000e+00  1.3213632301960440e-16 1.1004102729609108e-16 0.0000000000000000e+00  1.0660908704976967e-16 3.6084253167864943e-17 0.0000000000000000e+00  1.1877079043778323e-14 -4.3995025170473561e-15 0.0000000000000000e+00  1.3268693009379138e-14 -9.2768387606710655e-15 0.0000000000000000e+00  1.8869478517025330e-14 -2.1013125172642262e-15 0.0000000000000000e+00  1.7646574025536542e-14 3.3055469956172024e-15 0.0000000000000000e+00  8.6077927273461546e-17 -8.5980047308878571e-20 0.0000000000000000e+00  9.6897955990537108e-17 1.9062543018879294e-16 0.0000000000000000e+00  -3.9266811367643800e-16 -9.3008518857642187e-19 0.0000000000000000e+00  1.1029400657346288e-14 5.5431242897494643e-16 0.0000000000000000e+00  1.8766774530757143e-14 -6.8030156706992367e-15 0.0000000000000000e+00  -2.8215545850801303e-16 -4.6201733622918004e-16 0.0000000000000000e+00  -1.4756791708529834e-16 -8.1816545225426940e-16 0.0000000000000000e+00  5.7187922171032729e-17 1.3985994970325792e-17 0.0000000000000000e+00  1.0718784872498686e-16 7.3720834194219128e-17 0.0000000000000000e+00  1.6631454110208565e-16 2.4685791930323615e-16 0.0000000000000000e+00  6.9908015719342536e-17 2.6693093985425849e-18 0.0000000000000000e+00  5.8628963232474846e-17 -5.9797259066041621e-19 0.0000000000000000e+00  2.3823532812787496e-16 3.3726960920969768e-16 0.0000000000000000e+00  1.2000713289168554e-16 6.7084585582254325e-17 0.0000000000000000e+00  9.2516528958036666e-17 4.8569349469882618e-17 0.0000000000000000e+00  -1.7002467869867094e-16 -8.6257313277074728e-16 0.0000000000000000e+00  2.8092471030440003e-14 -8.6465405116996759e-15 0.0000000000000000e+00  2.5348525055506031e-14 -1.2133620872665549e-14 0.0000000000000000e+00  2.6027637181780866e-14 6.5390827377418640e-16 0.0000000000000000e+00  2.5682029513290686e-14 2.8350814325295867e-15 0.0000000000000000e+00  2.5211349963427759e-14 -3.3475903126668673e-15 0.0000000000000000e+00  -2.7102681062218960e-16 -1.5385195273079217e-16 0.0000000000000000e+00  4.1191410596245440e-16 5.0275812953467220e-16 0.0000000000000000e+00  3.0873693887123029e-17 -9.2756514021164623e-21 0.0000000000000000e+00  1.5559632740632949e-14 2.3296678175231719e-16 0.0000000000000000e+00  7.0897629953964205e-15 -3.6217797783474511e-15 0.0000000000000000e+00  2.7822215260712279e-16 -1.8025258848871433e-15 0.0000000000000000e+00  1.5726228625381052e-16 1.5261890404492394e-16 0.0000000000000000e+00  9.9758482375505887e-17 3.9918415204581115e-17 0.0000000000000000e+00  4.2205901091254782e-17 2.6417697876155907e-16 0.0000000000000000e+00  2.1629226012999335e-17 -1.3948343697851185e-17 0.0000000000000000e+00  2.9239068940439967e-14 -1.4496792038743382e-15 0.0000000000000000e+00  1.5448437381690353e-17 -2.3699729695531228e-17 0.0000000000000000e+00  1.5093041361948714e-14 -6.7527777339278407e-15 0.0000000000000000e+00  6.9172814033658636e-15 2.4384451791560096e-15 0.0000000000000000e+00  3.1883332374624140e-17 -1.8888292313021655e-17 0.0000000000000000e+00  2.5287513773830252e-16 -4.8900843922580177e-16 0.0000000000000000e+00  9.2232041887270422e-17 1.1851546138201243e-17 0.0000000000000000e+00  1.3198044092750412e-16 1.5081217543995779e-16 0.0000000000000000e+00  -3.6950960408399161e-16 -4.0804453221832742e-17 0.0000000000000000e+00  1.2398819387810819e-14 -1.9127390972555428e-15 0.0000000000000000e+00  4.7742312767648490e-17 4.6868182881630560e-17 0.0000000000000000e+00  1.1129283989227585e-16 2.6739548754944089e-17 0.0000000000000000e+00  4.8189402089813835e-16 5.9691648838816586e-16 0.0000000000000000e+00  2.1174751301400194e-16 4.6649830884310866e-16 0.0000000000000000e+00  -3.2874144559374276e-21 -4.7778795937857377e-18 0.0000000000000000e+00  2.4592812475191571e-17 -2.2825754675996032e-17 0.0000000000000000e+00  2.8117402465426242e-17 -1.9903693682835413e-17 0.0000000000000000e+00  3.6714616896500561e-17 -3.8366927348483771e-19 0.0000000000000000e+00  4.4393415140598451e-17 1.4051516667063039e-16 0.0000000000000000e+00  -2.4970605231411719e-16 -3.1284672098431278e-16 0.0000000000000000e+00  -2.9887742791776561e-16 -2.1279046641982757e-16 0.0000000000000000e+00  -3.3685484514841940e-16 -1.2524161412707294e-18 0.0000000000000000e+00  2.5211607886755207e-14 -9.1228875781024936e-15 0.0000000000000000e+00  6.8643869570354261e-15 3.2193318117197920e-16 0.0000000000000000e+00  1.1348082894959344e-14 -6.6273402630978782e-15 0.0000000000000000e+00  1.9564459393175519e-14 6.7615458258327010e-16 0.0000000000000000e+00  1.0137377098914865e-14 -2.7624651913847402e-15 0.0000000000000000e+00  2.0617740447276300e-14 -4.6088994135212555e-15 0.0000000000000000e+00  2.1558799314335108e-14 -8.6256896546921557e-15 0.0000000000000000e+00  -1.2824919310932808e-16 -1.2413553590950603e-16 0.0000000000000000e+00  2.4145679549722562e-17 -4.8296423361612831e-18 0.0000000000000000e+00  -2.2411697927955550e-16 -6.9649790303211031e-16 0.0000000000000000e+00  9.8062223961999396e-17 6.6003845028053654e-17 0.0000000000000000e+00  1.1242467800849372e-14 3.1225426570672912e-15 0.0000000000000000e+00  1.9623419659674370e-14 -1.1234545431002501e-14 0.0000000000000000e+00  6.4184735955373710e-15 -1.6685806526902106e-15 0.0000000000000000e+00  5.3266921331202187e-17 -4.2835430844287060e-18 0.0000000000000000e+00  1.0264364457779113e-16 2.5308393450119235e-16 0.0000000000000000e+00  2.1532774030565067e-16 3.4402939100673635e-16 0.0000000000000000e+00  2.7071071230007902e-16 -1.1307686345563609e-15 0.0000000000000000e+00  1.9628918570928195e-16 -1.4893222807538018e-15 0.0000000000000000e+00  -3.0974136965934874e-16 -3.2307553796498946e-16 0.0000000000000000e+00  2.6153338991526598e-14 -6.1584546666215766e-15 0.0000000000000000e+00  -2.2515694198982491e-17 -1.1543632841938335e-15 0.0000000000000000e+00  -3.5421420209473383e-16 -1.5695400200135519e-16 0.0000000000000000e+00  -3.4510270142510945e-16 -2.6777979353774378e-16 0.0000000000000000e+00  -3.9276310956475327e-16 -1.3009978809039099e-18 0.0000000000000000e+00  8.8977942404436788e-15 6.4923061889090021e-16 0.0000000000000000e+00  -3.3795083352057311e-16 -8.0169489846593372e-17 0.0000000000000000e+00  1.9053287574285825e-16 2.3102781700871678e-16 0.0000000000000000e+00  -2.0854562506131991e-16 7.5081432980817925e-17 0.0000000000000000e+00  -2.7562629319626247e-16 5.5488018277792770e-17 0.0000000000000000e+00  -1.9852828844243448e-16 7.4885554085821878e-17 0.0000000000000000e+00  -2.8413860740854920e-16 5.2635063198386478e-17 0.0000000000000000e+00  3.4873794779038680e-16 4.3987960272671747e-16 0.0000000000000000e+00  2.6089987458340417e-16 4.4701398625457176e-16 0.0000000000000000e+00  3.4550654877568832e-16 5.6512653990856896e-16 0.0000000000000000e+00  5.2424595225543889e-17 -1.1292938822582808e-18 0.0000000000000000e+00  5.6402722889916805e-18 -6.5006583564754268e-16 0.0000000000000000e+00  -1.3912345632258750e-16 -6.8646102886105172e-16 0.0000000000000000e+00  8.0000771128909287e-17 1.8207949956879279e-17 0.0000000000000000e+00  1.3048588114650207e-16 9.7092705383982961e-17 0.0000000000000000e+00  1.1341895546727926e-16 5.6191786010218313e-17 0.0000000000000000e+00  9.3514518019017292e-17 2.2695262489258192e-17 0.0000000000000000e+00  1.7247260591810459e-17 -2.7024933628774455e-17 0.0000000000000000e+00  1.0376049173536520e-16 5.2591244305062778e-17 0.0000000000000000e+00  1.3649231887561257e-16 1.0876668057839637e-16 0.0000000000000000e+00  -2.5105469710472029e-16 5.7752829194113958e-17 0.0000000000000000e+00  -2.2709870182108261e-16 1.1087098465883187e-16 0.0000000000000000e+00  -1.7671409076314093e-16 1.8606678854312048e-16 0.0000000000000000e+00  -1.4799564698798543e-16 2.3127803012455728e-16 0.0000000000000000e+00  -9.4967928478190268e-17 2.6280411752255191e-16 0.0000000000000000e+00  -6.0322995277971598e-17 2.8105761656651728e-16 0.0000000000000000e+00  -1.4792346877452623e-17 2.9793544045146618e-16 0.0000000000000000e+00  -3.8156857011827418e-16 -1.1189164956121977e-16 0.0000000000000000e+00  3.6048511335903702e-15 -3.8483047612483169e-15 0.0000000000000000e+00  2.7646717893117115e-15 -4.0092555559325251e-15 0.0000000000000000e+00  3.7650200571936184e-15 -3.9956616563807965e-15 0.0000000000000000e+00  1.2508065752842245e-15 -3.0015514261250614e-15 0.0000000000000000e+00  4.2382741310784165e-17 -2.1163539908768497e-18 0.0000000000000000e+00  6.5532893176783405e-17 7.4949086433078045e-17 0.0000000000000000e+00  6.1004020968358189e-16 7.3961360155351201e-16 0.0000000000000000e+00  7.1926111335019422e-16 8.0491497553333139e-16 0.0000000000000000e+00  5.9777041866541742e-16 7.3374108264412210e-16 0.0000000000000000e+00  7.1772055796720046e-16 7.701796798