<?xml version="1.0"?>
<VTKFile type="UnstructuredGrid"  version="0.1"  >
<UnstructuredGrid>
<Piece  NumberOfPoints="1122" NumberOfCells="2077">
<Points>
<DataArray  type="Float64"  NumberOfComponents="3"  format="ascii">5.3 7.265 0  7.05 4.065 0  7.05 7.265 0  5.3 4.065 0  7.05 3.565 0  5.3 3.565 0  4.95 4.065 0  4.95 3.565 0  7.05 2.965 0  5.3 2.965 0  4.95 2.965 0  4.6 3.565 0  4.6 2.965 0  7.05 2.365 0  5.3 2.365 0  4.95 2.365 0  4.6 2.365 0  4.25 2.965 0  4.25 2.365 0  7.05 0 0  5.3 0 0  4.95 0 0  4.6 0 0  4.25 0 0  0 2.365 0  0 0 0  6.175 5.665 0  6.175 3.815 0  5.125 3.815 0  6.175 3.265 0  5.125 2.665 0  4.775 2.665 0  5.125 3.265 0  4.775 3.265 0  6.175 2.665 0  5.125 1.1825 0  4.775 1.1825 0  4.425 1.1825 0  4.425 2.665 0  6.175 1.1825 0  2.125 1.1825 0  7.05 5.888629622483688 0  5.3 5.441370377516312 0  6.210013736160064 4.065 0  6.175 3.565 0  5.3 3.870163890393343 0  4.95 3.759836109606658 0  6.175 2.965 0  5.3 2.712311099736245 0  4.95 2.665 0  4.6 2.665 0  4.95 3.265 0  5.3 3.312311099736244 0  4.6 3.217688900263754 0  6.175 2.365 0  5.3 1.1825 0  4.95 1.1825 0  4.6 1.1825 0  4.25 1.16962087603974 0  4.25 2.617688900263755 0  7.05 1.471030676090747 0  2.431857571898486 2.365 0  1.818142428101514 0 0  6.6125 4.865 0  6.629333272907139 3.685190493455103 0  5.713851351351352 3.423108108108108 0  5.7375 3.94 0  6.636148648648648 3.106891891891892 0  5.713851351351352 2.823108108108108 0  5.025580653828612 2.835433164865235 0  4.874419346171388 2.494566835134765 0  4.675580653828613 2.835433164865235 0  4.524419346171387 2.494566835134765 0  5.025580653828612 3.435433164865235 0  4.874419346171388 3.094566835134765 0  6.636148648648648 2.506891891891892 0  5.820468412007996 1.661624117486337 0  5.213442732999042 0.5848798184493331 0  5.036557267000958 1.780120181550667 0  4.863442732999042 0.5848798184493331 0  4.686557267000959 1.780120181550667 0  4.513442732999041 0.5848798184493331 0  3.1875 0.5912499999999999 0  7.05 4.976814811241844 0  6.6125 3.565 0  6.630006868080033 4.065 0  5.7375 3.565 0  5.755006868080033 4.065 0  6.6125 2.965 0  5.7375 2.965 0  4.95 2.815 0  5.125 2.965 0  4.95 2.515 0  4.800000000000001 2.365 0  4.6 2.815 0  4.775 2.965 0  4.6 2.515 0  4.449999999999999 2.365 0  4.95 3.415 0  5.125 3.565 0  4.95 3.114999999999999 0  6.6125 2.365 0  5.3 1.9275 0  5.3 0.5912500000000001 0  4.95 0.5912500000000001 0  4.95 1.77375 0  4.6 0.5912500000000001 0  4.6 1.77375 0  4.25 0.5848104380198699 0  3.034071214050757 0 0  6.83125 4.465 0  5.211822570533285 3.116161307657225 0  5.199644089736418 3.708365586090832 0  5.560234206003997 2.013312058743169 0  5.3 1.555 0  4.3375 1.77375 0  3.71875 0.295625 0  7.05 4.520907405620923 0  5.3 3.139999999999999 0  5.3 3.739999999999999 0  5.7375 2.365 0  5.080778633500479 1.481310090775334 0  4.25 1.76731043801987 0  3.642035607025378 0 0  4.95 1.478125 0  4.73077863350048 1.481310090775334 0  4.6 1.478125 0  4.38125 1.478125 0  4.25 1.468465657029805 0  1.0625 1.77375 0  0 1.1825 0  1.215928785949243 2.365 0  0.9090712140507571 0 0  3.340928785949243 2.365 0  5.3 6.353185188758156 0  5.7375 6.465 0  1.251926214046421 0.8638539258762323 0  2.998073785953579 1.501146074123768 0  6.6125 0.5912500000000001 0  6.314484661954626 0 0  7.05 0.7355153380453735 0  6.175 7.265 0  7.05 6.576814811241844 0  1.823893178923864 2.365 0  1.59375 1.478125 0  0 0.5912500000000001 0  2.426106821076136 0 0  2.65625 0.8868750000000001 0  5.3 4.753185188758156 0  6.384382461419411 6.63086506016126 0  5.965647764605047 4.698780141966616 0  5.95625 0.5512968727055005 0  3.573985453476257 1.146376094877751 0  0.6756920837505003 1.21855677338705 0  0 1.77375 0  0.5312499999999999 2.069375 0  0.6079643929746215 2.365 0  6.446593558696915 1.754199000482114 0  3.610596224419451 1.784975253492358 0  0.6394873570286449 0.5799959292452963 0  2.417022476128119 1.737785075476752 0  1.83297752387188 0.6272149245232482 0  6.39375 5.265000000000001 0  7.05 5.432722216862766 0  5.95625 6.065 0  5.3 5.897277783137234 0  1.363606821076136 0 0  2.886393178923864 2.365 0  5.807242330977314 0 0  5.66317075542392 5.097277783137233 0  6.531608295550142 6.093321366176391 0  6.39375 0.8868750000000001 0  7.05 1.10327300706806 0  1.519910982436554 1.97058461431516 0  2.730089017563446 0.3944153856848401 0  3.118321402239236 1.051513924837064 0  1.080031360230293 0.4321124510033665 0  1.131373342792352 1.313422525825128 0  3.170050834191505 1.932854926851105 0  2.299923182630591 0.5816821397526466 0  1.950076817369409 1.783317860247354 0  6.613181962233742 1.324697214951463 0  6.6125 7.265 0  7.05 6.920907405620921 0  5.51875 6.865 0  5.3 6.809092594379077 0  5.983458173428153 6.850120530156478 0  5.7375 0.9806135633003248 0  3.795464392974622 2.365 0  0.4545356070253785 0 0  5.707817604026098 5.669324080326772 0  6.382560485385842 4.479437374820383 0  7.05 1.918015338045373 0  2.588389785493746 1.326880192167154 0  1.703300758037187 1.049840817825812 0  3.81583399465085 0.749837075035683 0  0.3530001285220923 0.9165457830971103 0  5.7375 7.265 0  0.3230327290960819 1.478125 0  6.645222772803423 5.648779777756588 0  5.3 4.409092594379079 0  0.6966084743942642 1.616326964752643 0  5.95625 2.0342218763767 0  1.49184819442877 0.3932638652425394 0  2.659125375411175 2.045841681839123 0  5.614524271201718 0.3478746969228768 0  5.999107992102964 5.308994605056308 0  2.127875375411175 2.365 0  2.037600823622477 0.3085922016883884 0  3.93649851739085 2.000575559990484 0  3.906455196942886 1.319043266534772 0  0 0.295625 0  0.9119465894619322 2.365 0  0.7968749999999998 1.9215625 0  3.338053410538068 0 0  3.453125 0.4434374999999999 0  7.05 0.3677576690226868 0  6.83125 0.295625 0  6.682242330977314 0 0  6.668949774591622 6.886595444085661 0  5.68188834913787 4.441195406600733 0  6.758701711409929 5.204768514052305 0  5.59129828859007 6.125231485947695 0  6.163759209134029 4.993941590579597 0  6.233034970219983 6.300479647380988 0  6.703009859999504 6.429199314158878 0  5.609311330585206 1.36875 0  0.3587822425707757 0.3500213638980786 0  6.721382088515962 0.9965688100980222 0  2.209060623332511 2.022170427178749 0  5.3 5.097277783137233 0  7.05 6.232722216862767 0  6.059295437662608 4.370887739173418 0  0.8690637789301248 0.8872863262959064 0  3.466735784094473 0.8089436482612071 0  3.295985566969465 1.339922954220738 0  6.39375 2.096484771253884 0  6.711845829197576 1.970371788042478 0  6.060173353037894 0.8687877612331139 0  6.301258297484685 6.955053672984521 0  6.754921001691115 1.626730465232963 0  6.49836349646597 0.2780484381883498 0  6.284029928285962 0.5769414109938407 0  6.06086349646597 0 0  5.643646453505415 4.768412579276713 0  5.655197341664164 0.6682895817033545 0  2.872957907069126 1.801096788690002 0  4.6 0.295625 0  4.906721366499522 0.2924399092246666 0  4.55672136649952 0.2924399092246666 0  4.95 0.295625 0  3.568196589461933 2.1179624530524 0  3.620056836640555 1.464083854703579 0  3.927107481851438 1.660653323618258 0  0.7896275243076972 0.2971318722880981 0  6.12561317803929 1.761463214735561 0  6.326880341955087 1.460708780209755 0  1.429466162327612 1.207949778943681 0  2.296927843562433 1.446513085688053 0  1.980950224264427 0.9038259360937273 0  1.52702416133256 0.7076527164671081 0  0.4258514322303463 1.77420426839212 0  1.859375 1.3303125 0  2.390625 1.0346875 0  5.3 0.8868750000000001 0  5.169221366499521 0.8836899092246666 0  4.95 0.8868750000000001 0  4.819221366499521 0.8836899092246666 0  4.6 0.8868750000000001 0  4.46922136649952 0.8836899092246666 0  4.25 0.8772156570298049 0  6.140746550782823 0.3007326298726944 0  6.83125 3.565 0  7.05 3.265 0  6.83966663645357 3.625095246727552 0  7.05 2.665 0  1.214780807536237 2.049765590706595 0  3.186062312294412 0.276090769979388 0  4.29375 2.069375 0  4.6 2.069375 0  4.25 2.066155219009935 0  4.643278633500479 2.072560090775334 0  1.328125 1.6259375 0  3.946017803512689 0 0  3.984375 0.1478125 0  2.122124624588825 0 0  2.921875 0.7390625 0  0.3039821964873107 2.365 0  0.2656249999999999 2.2171875 0  1.519910982436554 2.365 0  2.730089017563446 0 0  3.267848714624348 1.643786705677805 0  3.962128140614412 0.4810864575242905 0  6.088735565830333 6.566440677959418 0  2.87287907903055 1.226769242480236 0  5.997734206003997 1.422062058743168 0  2.335585913229898 0.2848909091867997 0  1.915727811171581 2.080394075538645 0  5.3 0.295625 0  5.256721366499521 0.2924399092246666 0  0 1.478125 0  0 0.8868750000000001 0  4.95 2.069375 0  4.993278633500479 2.072560090775334 0  0 2.069375 0  4.25 0.2924052190099349 0  3.841572739148465 1.037556133343355 0  6.247685367118326 6.002851795106343 0  5.596179388183639 5.390271738108119 0  0.361226814135335 0.633338030484755 0  0.390270021626804 1.200123785848559 0  6.341029012534215 4.765551947817491 0  5.555765280690617 2.58528286847223 0  6.818326003308544 6.060675919673228 0  5.628125 6.665 0  5.3 6.581138891568616 0  6.721875 4.665 0  7.05 4.748861108431384 0  2.729013460599041 1.564984855461338 0  1.766005998581615 0.3591878959166037 0  6.83125 7.265 0  5.527503434040016 4.065 0  5.51875 4.0025 0  6.414708980099403 5.79017371349605 0  5.555816552627036 1.629876120346811 0  6.405574324324323 3.185945945945946 0  6.405574324324323 2.585945945945946 0  5.944425675675676 3.344054054054054 0  5.95625 2.965 0  5.944425675675676 2.744054054054054 0  6.83125 2.965 0  6.843074324324323 3.035945945945945 0  0.9539220190930711 1.522188675922875 0  5.875323973896693 0.2985022980005431 0  6.284375 5.465 0  1.28446357176077 0.6008092986991798 0  2.93210457621998 2.068557687752316 0  7.05 2.141507669022687 0  6.420010302120049 4.065 0  6.40216663645357 3.750095246727552 0  6.39375 3.565 0  5.846875 6.265 0  0.2127682824147084 1.9215625 0  0.607699940173331 0.8431476678143333 0  1.270397973338397 0.2479363044321548 0  5.826861590721315 1.225363214864182 0  5.895744270062652 4.959765766084354 0  1.590874624588825 0 0  5.553621165488657 0 0  3.113660982436554 2.365 0  1.050077073521563 0.7053514850398296 0  5.
[...]
<PointData  Vectors="Displacement"> 
<DataArray  type="Float64"  Name="Displacement"  NumberOfComponents="3" format="ascii">2.7973519249970040e-02 2.0407384999997523e-02 0.0000000000000000e+00  1.1649578624994430e-02 2.0204066250005578e-02 0.0000000000000000e+00  3.7210058624971877e-02 3.6108866250012250e-02 0.0000000000000000e+00  8.7578392499954427e-03 1.1418584999998059e-02 0.0000000000000000e+00  8.9600036249963110e-03 1.7718941250004550e-02 0.0000000000000000e+00  6.7358892499968896e-03 1.0014084999998814e-02 0.0000000000000000e+00  8.1794913749957624e-03 9.9602662499981617e-03 0.0000000000000000e+00  6.2910663749968848e-03 8.7351412499981854e-03 0.0000000000000000e+00  6.1978136249980567e-03 1.4736791250003455e-02 0.0000000000000000e+00  4.6593492499983902e-03 8.3286849999992148e-03 0.0000000000000000e+00  4.3516563749983975e-03 7.2649912499987111e-03 0.0000000000000000e+00  5.8462434999969112e-03 7.5435399999977705e-03 0.0000000000000000e+00  4.0439634999985489e-03 6.2739399999985320e-03 0.0000000000000000e+00  3.9432236249992581e-03 1.1754641250002442e-02 0.0000000000000000e+00  2.9644092499991476e-03 6.6432849999994844e-03 0.0000000000000000e+00  2.7686463749990319e-03 5.7948412499991084e-03 0.0000000000000000e+00  2.5728834999990328e-03 5.0043399999990523e-03 0.0000000000000000e+00  3.7362706249987588e-03 5.3555312499990980e-03 0.0000000000000000e+00  2.3771206249991851e-03 4.2717812499991157e-03 0.0000000000000000e+00  2.6740690598016126e-16 0.0000000000000000e+00 0.0000000000000000e+00  3.5241000187310140e-16 0.0000000000000000e+00 0.0000000000000000e+00  2.9659963057207497e-16 0.0000000000000000e+00 0.0000000000000000e+00  2.2275929683430624e-16 0.0000000000000000e+00 0.0000000000000000e+00  1.4762914343148570e-16 0.0000000000000000e+00 0.0000000000000000e+00  0.0000000000000000e+00 4.1310278436336016e-17 0.0000000000000000e+00  0.0000000000000000e+00 0.0000000000000000e+00 0.0000000000000000e+00  1.9816948937484563e-02 2.1600999062503245e-02 0.0000000000000000e+00  8.9872339374958473e-03 1.4546833437501665e-02 0.0000000000000000e+00  7.4590403124960656e-03 1.0020335937498350e-02 0.0000000000000000e+00  6.5826889374975559e-03 1.2449649062501079e-02 0.0000000000000000e+00  3.6398903124987667e-03 6.9997890624991033e-03 0.0000000000000000e+00  3.3913124374987565e-03 6.0763665624988545e-03 0.0000000000000000e+00  5.4633653124977104e-03 8.5757265624987027e-03 0.0000000000000000e+00  5.0902574374976466e-03 7.4444040624982539e-03 0.0000000000000000e+00  4.3856239374988918e-03 1.0161811562500773e-02 0.0000000000000000e+00  7.1663195312509536e-04 3.1059101562497852e-03 0.0000000000000000e+00  6.6769123437500854e-04 2.6961739062496487e-03 0.0000000000000000e+00  6.1875051562493310e-04 2.3154089062495842e-03 0.0000000000000000e+00  3.1427345624987081e-03 5.2182365624989600e-03 0.0000000000000000e+00  8.6345410937523493e-04 4.5089464062504575e-03 0.0000000000000000e+00  2.9714007812487603e-04 5.3397265624991906e-04 0.0000000000000000e+00  2.4446550975691376e-02 2.9267961381159849e-02 0.0000000000000000e+00  1.5692511140201332e-02 1.5284809390439873e-02 0.0000000000000000e+00  1.0261566422934703e-02 1.5676376000242121e-02 0.0000000000000000e+00  7.8479464374966949e-03 1.3593567812501402e-02 0.0000000000000000e+00  7.9384293254033296e-03 1.0871290368113433e-02 0.0000000000000000e+00  6.9975019476917581e-03 9.2125384275617284e-03 0.0000000000000000e+00  5.4285814374982529e-03 1.1305730312500930e-02 0.0000000000000000e+00  3.8990146959275514e-03 7.6188818791584909e-03 0.0000000000000000e+00  3.5156013749987722e-03 6.5299162499989410e-03 0.0000000000000000e+00  3.2670234999987338e-03 5.6391399999988854e-03 0.0000000000000000e+00  5.2768113749976772e-03 8.0000662499985081e-03 0.0000000000000000e+00  5.8148445553586918e-03 9.3042818791581449e-03 0.0000000000000000e+00  4.7626200550828033e-03 6.8086297129560189e-03 0.0000000000000000e+00  3.4538164374993594e-03 9.0178928125007815e-03 0.0000000000000000e+00  7.4110231250013817e-04 3.3216424999998832e-03 0.0000000000000000e+00  6.9216159375004636e-04 2.8974206249997069e-03 0.0000000000000000e+00  6.4322087499996854e-04 2.5021699999996060e-03 0.0000000000000000e+00  5.8140552230879030e-04 2.1126277073463505e-03 0.0000000000000000e+00  2.9122254508884742e-03 4.7282005761003507e-03 0.0000000000000000e+00  1.5255715312500260e-03 7.3113902178412269e-03 0.0000000000000000e+00  1.3601926567581250e-03 1.3986447406248914e-03 0.0000000000000000e+00  -1.0483929497734655e-16 0.0000000000000000e+00 0.0000000000000000e+00  1.5650613781240722e-02 2.1272288515630053e-02 0.0000000000000000e+00  9.0030515518020084e-03 1.6195697160322167e-02 0.0000000000000000e+00  6.6953019534804325e-03 1.1175796646328506e-02 0.0000000000000000e+00  8.9066654999956606e-03 1.2970049062499921e-02 0.0000000000000000e+00  6.4057264556636809e-03 1.3682276191625735e-02 0.0000000000000000e+00  4.5539048954102001e-03 9.2169108104081937e-03 0.0000000000000000e+00  4.0404066464573025e-03 7.1613006886041240e-03 0.0000000000000000e+00  3.0332847183261991e-03 5.9270818104415627e-03 0.0000000000000000e+00  3.7590178033227073e-03 6.1985558807735848e-03 0.0000000000000000e+00  2.8154844890027693e-03 5.1064707152670601e-03 0.0000000000000000e+00  5.9312913170222669e-03 8.6766883430918536e-03 0.0000000000000000e+00  4.6679115957674235e-03 7.3526796481809074e-03 0.0000000000000000e+00  4.1704922354312210e-03 1.1039968058407425e-02 0.0000000000000000e+00  1.6070282482542467e-03 5.6292256821108356e-03 0.0000000000000000e+00  1.7834374398350533e-04 1.5897024768441723e-03 0.0000000000000000e+00  1.5959982990002657e-03 4.5156146839195350e-03 0.0000000000000000e+00  1.6637078991241203e-04 1.3834206338780312e-03 0.0000000000000000e+00  1.4850893238734513e-03 3.9098237495866989e-03 0.0000000000000000e+00  1.5439783584130510e-04 1.1914683464639326e-03 0.0000000000000000e+00  1.1142752929678047e-04 6.0071923828108941e-04 0.0000000000000000e+00  1.7461923394094178e-02 2.4736013815582433e-02 0.0000000000000000e+00  8.4039750312464596e-03 1.5588018203127966e-02 0.0000000000000000e+00  1.0955572523964473e-02 1.7868516870279284e-02 0.0000000000000000e+00  7.2919178437469336e-03 1.1735590078124889e-02 0.0000000000000000e+00  9.5097028364650414e-03 1.3463322296995098e-02 0.0000000000000000e+00  5.8131975312481661e-03 1.2964508828127165e-02 0.0000000000000000e+00  5.0439653437483840e-03 9.7604557031249536e-03 0.0000000000000000e+00  3.9224913749986027e-03 6.8974537499988222e-03 0.0000000000000000e+00  4.5055028124983878e-03 7.7877578124989537e-03 0.0000000000000000e+00  3.1309863749989270e-03 6.1623787499990503e-03 0.0000000000000000e+00  2.6847479999990102e-03 5.4489599999990816e-03 0.0000000000000000e+00  3.6451434999986111e-03 5.9565399999987802e-03 0.0000000000000000e+00  4.1978099374984385e-03 6.7603853124985893e-03 0.0000000000000000e+00  2.9096034999988828e-03 5.3217399999989784e-03 0.0000000000000000e+00  2.4889851249990718e-03 4.6832912499990840e-03 0.0000000000000000e+00  5.7728013749972626e-03 8.3676037499983563e-03 0.0000000000000000e+00  6.5134778124968720e-03 9.3636953124985149e-03 0.0000000000000000e+00  4.8030963749981235e-03 7.6325287499986556e-03 0.0000000000000000e+00  3.6985200312493333e-03 1.0340999453126585e-02 0.0000000000000000e+00  1.9690858124996268e-03 5.4143474999996518e-03 0.0000000000000000e+00  1.8527557812530679e-04 1.6608212499999617e-03 0.0000000000000000e+00  1.7304039843774488e-04 1.4487103124998808e-03 0.0000000000000000e+00  1.5573635859371566e-03 4.3461309374994333e-03 0.0000000000000000e+00  1.6080521875016897e-04 1.2510849999998327e-03 0.0000000000000000e+00  1.4472469687495891e-03 3.7532549999993396e-03 0.0000000000000000e+00  1.4535138057730808e-04 1.0563138536731930e-03 0.0000000000000000e+00  -7.3832811761779301e-17 0.0000000000000000e+00 0.0000000000000000e+00  1.3618933703117741e-02 2.0836358535161741e-02 0.0000000000000000e+00  5.0609201349324194e-03 8.4644584098068285e-03 0.0000000000000000e+00  7.1505377195337739e-03 1.0026047952574689e-02 0.0000000000000000e+00  2.2537994815668991e-03 6.2243967180662567e-03 0.0000000000000000e+00  1.2815532499999371e-03 4.3679949999997861e-03 0.0000000000000000e+00  1.3646595058589284e-03 3.3371166210930787e-03 0.0000000000000000e+00  3.2499696044938593e-05 4.0882281494129905e-04 0.0000000000000000e+00  1.4409215657982104e-02 2.2470040032793979e-02 0.0000000000000000e+00  5.2255879999980803e-03 8.8202599999991586e-03 0.0000000000000000e+00  7.4134279999963160e-03 1.0505659999998706e-02 0.0000000000000000e+00  3.2091128437492628e-03 7.7853213281250866e-03 0.0000000000000000e+00  1.1148648831560330e-03 3.8239000144893840e-03 0.0000000000000000e+00  1.3274391283415044e-03 3.1922044786727305e-03 0.0000000000000000e+00  1.4405655153924496e-17 0.0000000000000000e+00 0.0000000000000000e+00  1.0815024902342660e-03 3.6217757812495996e-03 0.0000000000000000e+00  1.0380650976797956e-03 3.3152114569852476e-03 0.0000000000000000e+00  1.0050326171872996e-03 3.1277124999994957e-03 0.0000000000000000e+00  9.5723894653297061e-04 2.8373129028314908e-03 0.0000000000000000e+00  9.1646633899704030e-04 2.6524160930095171e-03 0.0000000000000000e+00  3.3428258789058261e-04 2.0023974609375582e-04 0.0000000000000000e+00  0.0000000000000000e+00 2.0456076489414528e-17 0.0000000000000000e+00  6.8009632837905901e-04 3.4966118515625683e-04 0.0000000000000000e+00  -6.0248532511989599e-17 0.0000000000000000e+00 0.0000000000000000e+00  1.8686566408788441e-03 2.6397669186331010e-03 0.0000000000000000e+00  2.1392369882585891e-02 1.7846097195218475e-02 0.0000000000000000e+00  2.3980584093727643e-02 2.1282072890625718e-02 0.0000000000000000e+00  9.3424193147843509e-05 1.3539348832544051e-04 0.0000000000000000e+00  6.7559780006828365e-04 1.3492971064892017e-03 0.0000000000000000e+00  2.3115750195343328e-04 2.5852498632816185e-03 0.0000000000000000e+00  3.8068228626093952e-16 0.0000000000000000e+00 0.0000000000000000e+00  3.8139288281270573e-04 3.6556951089205827e-03 0.0000000000000000e+00  3.2591788937471090e-02 2.7701899062505263e-02 0.0000000000000000e+00  3.0494417608243018e-02 3.2688413815586251e-02 0.0000000000000000e+00  1.0201444925685768e-03 7.8673766660152899e-04 0.0000000000000000e+00  3.4821102905265434e-04 3.7544952392575286e-04 0.0000000000000000e+00  0.0000000000000000e+00 9.8280557121723267e-18 0.0000000000000000e+00  -1.0882520082333120e-16 0.0000000000000000e+00 0.0000000000000000e+00  2.0892661743149868e-04 6.2574920654282699e-04 0.0000000000000000e+00  1.1974167802464885e-02 1.3351697195218828e-02 0.0000000000000000e+00  2.8071089951720984e-02 2.7027631045854473e-02 0.0000000000000000e+00  1.3171276190975486e-02 1.6722466681077418e-02 0.0000000000000000e+00  1.8102725905516450e-04 1.9558311775899470e-03 0.0000000000000000e+00  4.6968535946168314e-04 1.4643088336607475e-03 0.0000000000000000e+00  1.0033220734692527e-04 5.5634402705042804e-05 0.0000000000000000e+00  0.0000000000000000e+00 3.0176661661691563e-17 0.0000000000000000e+00  2.2749787231443461e-04 5.8403259277371704e-05 0.0000000000000000e+00  3.4004816418953292e-04 8.7415296289092018e-05 0.0000000000000000e+00  1.9837548810413960e-03 7.2901999343529950e-03 0.0000000000000000e+00  1.1503852979118454e-03 2.3269660490485454e-03 0.0000000000000000e+00  2.1512052720706046e-05 2.3718590157271575e-05 0.0000000000000000e+00  7.2991588485745232e-04 1.0152136327327642e-03 0.0000000000000000e+00  7.2109072123389940e-05 2.1073208449252061e-04 0.0000000000000000e+00  1.7723618859363018e-02 2.1523340566410514e-02 0.0000000000000000e+00  2.0807701833330562e-02 2.7001987598371285e-02 0.0000000000000000e+00  2.1909604015605998e-02 2.1516748378908220e-02 0.0000000000000000e+00  1.8432279183268740e-02 1.6565453292829088e-02 0.0000000000000000e+00  -8.6081680687247539e-17 0.0000000000000000e+00 0.0000000000000000e+00  1.6144246488185394e-03 1.9703443104592830e-03 0.0000000000000000e+00  3.9265585167483972e-16 0.0000000000000000e+00 0.0000000000000000e+00  1.4714186625013458e-02 1.6347735973965116e-02 0.0000000000000000e+00  2.4250924492902608e-02 2.5995270899713395e-02 0.0000000000000000e+00  5.0289865795926335e-04 3.6255484643559093e-03 0.0000000000000000e+00  8.5813398632826718e-04 5.4835426633808131e-03 0.0000000000000000e+00  5.9021239843726290e-04 4.5523054419403103e-04 0.0000000000000000e+00  4.2470219323157683e-05 2.9397301311307302e-04 0.0000000000000000e+00  3.4478703919249023e-04 1.0224846082713549e-03 0.0000000000000000e+00  2.0166471955530907e-05 5.0404523375057181e-05 0.0000000000000000e+00  1.9517080908610249e-04 1.6811882417851727e-04 0.0000000000000000e+00  1.1843082206246204e-03 1.9423688816870234e-03 0.0000000000000000e+00  7.7818846545260506e-05 3.0768929795809482e-04 0.0000000000000000e+00  6.2016783481531217e-04 6.7816004342819271e-04 0.0000000000000000e+00  1.1604961901289972e-03 5.7934540702444786e-03 0.0000000000000000e+00  3.4900923781221657e-02 3.1766326015633423e-02 0.0000000000000000e+00  3.3768766318585323e-02 3.4398640032799271e-02 0.0000000000000000e+00  2.6008889171848813e-02 2.0908456972655483e-02 0.0000000000000000e+00  2.4572783238152991e-02 1.9126741097607865e-02 0.0000000000000000e+00  2.8076869649330750e-02 2.4524645142835352e-02 0.0000000000000000e+00  5.5171969860352864e-04 3.2280725957763131e-03 0.0000000000000000e+00  2.1228886329391250e-03 3.4069125651464676e-03 0.0000000000000000e+00  -3.0875563686893617e-17 0.0000000000000000e+00 0.0000000000000000e+00  1.8345630996041518e-02 1.8470193990078716e-02 0.0000000000000000e+00  1.2806836872261130e-02 1.8247919130025880e-02 0.0000000000000000e+00  2.5935419000687092e-03 9.5330157339217625e-03 0.0000000000000000e+00  4.5571476434616554e-04 8.8897810676181338e-04 0.0000000000000000e+00  1.8773197451471522e-04 3.0458333212941933e-04 0.0000000000000000e+00  2.1454741813541116e-04 1.0918069522591635e-03 0.0000000000000000e+00  2.9653993686268146e-05 1.1420993665034700e-05 0.0000000000000000e+00  3.0282654093720558e-02 2.3915585390626295e-02 0.0000000000000000e+00  7.0577919382735387e-05 1.5424255669965864e-05 0.0000000000000000e+00  2.1204050612938861e-02 2.4944438542951454e-02 0.0000000000000000e+00  1.0303251678071489e-02 1.2385141097608326e-02 0.0000000000000000e+00  1.8198985956404307e-04 7.8434426443902504e-05 0.0000000000000000e+00  2.4647311788372648e-03 7.2167914692278191e-03 0.0000000000000000e+00  2.3072397210226118e-05 8.7525239823709177e-05 0.0000000000000000e+00  1.1129684664426280e-03 1.4466039661923458e-03 0.0000000000000000e+00  6.7945178754740611e-05 1.0966013297372497e-03 0.0000000000000000e+00  1.6908740067844062e-02 1.9106698202493905e-02 0.0000000000000000e+00  1.1901685746633628e-03 1.0708373795409632e-03 0.0000000000000000e+00  1.9403898824257800e-05 1.2812183849654669e-04 0.0000000000000000e+00  1.5755058137796444e-03 3.1000960044290614e-03 0.0000000000000000e+00  6.7967442787398734e-04 2.0129117583632633e-03 0.0000000000000000e+00  0.0000000000000000e+00 4.7765340515160864e-18 0.0000000000000000e+00  5.1007224628429415e-04 1.9668441665041206e-04 0.0000000000000000e+00  2.9423831954953012e-04 1.2202109527589791e-04 0.0000000000000000e+00  -3.6723907020015500e-17 0.0000000000000000e+00 0.0000000000000000e+00  6.7901150665238301e-05 5.2875807952866430e-04 0.0000000000000000e+00  9.5348220703374382e-05 1.8278475544603126e-03 0.0000000000000000e+00  5.9701122314751592e-05 1.3795629321291115e-03 0.0000000000000000e+00  3.3683613558585329e-16 0.0000000000000000e+00 0.0000000000000000e+00  3.1627625557910204e-02 3.0628058239818557e-02 0.0000000000000000e+00  1.1207079672041017e-02 1.4337890947519848e-02 0.0000000000000000e+00  1.8309062918717429e-02 2.3775407983863166e-02 0.0000000000000000e+00  2.0977690541784753e-02 1.9149076323735231e-02 0.0000000000000000e+00  1.5372078069629065e-02 1.8972946728894963e-02 0.0000000000000000e+00  2.4742682910393412e-02 2.4477820177041823e-02 0.0000000000000000e+00  2.7706625697233193e-02 2.8886611872036321e-02 0.0000000000000000e+00  1.0508913309618291e-03 4.3066861369697867e-03 0.0000000000000000e+00  4.3956190369516160e-06 4.5056394215807633e-06 0.0000000000000000e+00  6.6753365430817133e-04 4.5021966391928609e-03 0.0000000000000000e+00  9.0332315788606168e-04 9.8680882254548294e-04 0.0000000000000000e+00  1.3770587623174820e-02 1.4318253292829271e-02 0.0000000000000000e+00  2.7387012493945387e-02 3.0978187598373223e-02 0.0000000000000000e+00  1.1576077692473836e-02 1.6047741084593899e-02 0.0000000000000000e+00  6.8419394626455357e-05 6.7014238678123197e-05 0.0000000000000000e+00  2.2685966267559806e-04 9.7220926606657592e-04 0.0000000000000000e+00  5.9175911396524628e-04 1.4556280960845631e-03 0.0000000000000000e+00  2.8102119432557963e-03 8.5704379342805871e-03 0.0000000000000000e+00  2.6057835219332366e-03 8.8763031269642450e-03 0.0000000000000000e+00  4.5741714203742062e-04 3.1906839611343667e-03 0.0000000000000000e+00  3.0480932837936198e-02 2.7615636052727575e-02 0.0000000000000000e+00  1.7875223254589434e-03 7.4226015651012349e-03 0.0000000000000000e+00  5.0239455125023590e-05 1.1741631903840531e-03 0.0000000000000000e+00  2.0917109475400935e-04 2.2782857921400824e-03 0.0000000000000000e+00  3.9274483464738525e-16 0.0000000000000000e+00 0.0000000000000000e+00  1.2832387026698642e-02 1.5187749451048706e-02 0.0000000000000000e+00  2.5256731421043353e-04 2.1372740844944841e-03 0.0000000000000000e+00  9.3197307747751648e-04 1.4866049614480517e-03 0.0000000000000000e+00  4.0201304687708274e-05 6.2554249999992198e-04 0.0000000000000000e+00  4.1962821114862955e-05 7.0407582709015285e-04 0.0000000000000000e+00  3.8969582597029239e-05 6.0721373540744686e-04 0.0000000000000000e+00  4.3260099609658855e-05 7.2435515624994353e-04 0.0000000000000000e+00  1.6006091204776613e-03 2.6965954927667640e-03 0.0000000000000000e+00  7.7597421833423504e-04 1.9186542936822997e-03 0.0000000000000000e+00  1.0830057084470646e-03 2.5610883138836153e-03 0.0000000000000000e+00  6.9714121236087870e-06 1.8526517716679530e-05 0.0000000000000000e+00  1.9006262563097905e-03 6.6095625186971228e-03 0.0000000000000000e+00  1.3499475668665272e-03 5.8471317754738225e-03 0.0000000000000000e+00  2.0857950705570046e-04 2.4682925787851889e-04 0.0000000000000000e+00  4.8060920657933475e-04 7.6316258690434550e-04 0.0000000000000000e+00  1.6182408585136738e-04 3.5467610117971077e-04 0.0000000000000000e+00  7.6469150392400426e-05 1.6501065781088258e-04 0.0000000000000000e+00  1.3404954730855600e-04 3.2175095465736366e-05 0.0000000000000000e+00  3.2905942245472787e-04 4.5992566680902610e-04 0.0000000000000000e+00  2.5593510635362165e-04 5.9133300018299304e-04 0.0000000000000000e+00  4.1687005078149876e-04 2.4912318749999275e-03 0.0000000000000000e+00  4.0366855727756766e-04 2.3612945100762259e-03 0.0000000000000000e+00  3.8934089648454931e-04 2.1730654687497999e-03 0.0000000000000000e+00  3.7633678232919552e-04 2.0523604982554205e-03 0.0000000000000000e+00  3.6181174218759239e-04 1.8766274999997233e-03 0.0000000000000000e+00  3.4900500738081563e-04 1.7650768892106803e-03 0.0000000000000000e+00  3.2704060629876143e-04 1.5844707805097765e-03 0.0000000000000000e+00  5.5536982221691973e-05 1.1340257030332920e-03 0.0000000000000000e+00  8.6819893281213385e-03 1.6636420644535001e-02 0.0000000000000000e+00  7.5154586249971903e-03 1.6227866250003904e-02 0.0000000000000000e+00  8.9882217511677263e-03 1.6958572464556489e-02 0.0000000000000000e+00  5.0070686249987202e-03 1.3245716250002917e-02 0.0000000000000000e+00  5.1039489111859911e-04 3.0248235252195100e-04 0.0000000000000000e+00  2.4286114669460187e-05 2.8025954893889530e-04 0.0000000000000000e+00  1.8387180974114871e-03 3.8151595678703226e-03 0.0000000000000000e+00  1.9698639296867673e-03 4.3787974999991664e-03 0.0000000000000000e+00  1.8143238903422384e-03 3.7319928643359313e-03 0.0000000000000000e+00  1.9945228118287113e-03 4.4684471139897026e-03 0.0000000000000000e+00  3.5111278762811393e-04 2.8680171966551755e-04 0.0000000000000000e+00  7.8141832521441648e-17 0.0000000000000000e+00 0.00000000000