<?xml version="1.0"?>
<VTKFile type="UnstructuredGrid"  version="0.1"  >
<UnstructuredGrid>
<Piece  NumberOfPoints="1122" NumberOfCells="2077">
<Points>
<DataArray  type="Float64"  NumberOfComponents="3"  format="ascii">5.3 7.265 0  7.05 4.065 0  7.05 7.265 0  5.3 4.065 0  7.05 3.565 0  5.3 3.565 0  4.95 4.065 0  4.95 3.565 0  7.05 2.965 0  5.3 2.965 0  4.95 2.965 0  4.6 3.565 0  4.6 2.965 0  7.05 2.365 0  5.3 2.365 0  4.95 2.365 0  4.6 2.365 0  4.25 2.965 0  4.25 2.365 0  7.05 0 0  5.3 0 0  4.95 0 0  4.6 0 0  4.25 0 0  0 2.365 0  0 0 0  6.175 5.665 0  6.175 3.815 0  5.125 3.815 0  6.175 3.265 0  5.125 2.665 0  4.775 2.665 0  5.125 3.265 0  4.775 3.265 0  6.175 2.665 0  5.125 1.1825 0  4.775 1.1825 0  4.425 1.1825 0  4.425 2.665 0  6.175 1.1825 0  2.125 1.1825 0  7.05 5.888629622483688 0  5.3 5.441370377516312 0  6.210013736160064 4.065 0  6.175 3.565 0  5.3 3.870163890393343 0  4.95 3.759836109606658 0  6.175 2.965 0  5.3 2.712311099736245 0  4.95 2.665 0  4.6 2.665 0  4.95 3.265 0  5.3 3.312311099736244 0  4.6 3.217688900263754 0  6.175 2.365 0  5.3 1.1825 0  4.95 1.1825 0  4.6 1.1825 0  4.25 1.16962087603974 0  4.25 2.617688900263755 0  7.05 1.471030676090747 0  2.431857571898486 2.365 0  1.818142428101514 0 0  6.6125 4.865 0  6.629333272907139 3.685190493455103 0  5.713851351351352 3.423108108108108 0  5.7375 3.94 0  6.636148648648648 3.106891891891892 0  5.713851351351352 2.823108108108108 0  5.025580653828612 2.835433164865235 0  4.874419346171388 2.494566835134765 0  4.675580653828613 2.835433164865235 0  4.524419346171387 2.494566835134765 0  5.025580653828612 3.435433164865235 0  4.874419346171388 3.094566835134765 0  6.636148648648648 2.506891891891892 0  5.820468412007996 1.661624117486337 0  5.213442732999042 0.5848798184493331 0  5.036557267000958 1.780120181550667 0  4.863442732999042 0.5848798184493331 0  4.686557267000959 1.780120181550667 0  4.513442732999041 0.5848798184493331 0  3.1875 0.5912499999999999 0  7.05 4.976814811241844 0  6.6125 3.565 0  6.630006868080033 4.065 0  5.7375 3.565 0  5.755006868080033 4.065 0  6.6125 2.965 0  5.7375 2.965 0  4.95 2.815 0  5.125 2.965 0  4.95 2.515 0  4.800000000000001 2.365 0  4.6 2.815 0  4.775 2.965 0  4.6 2.515 0  4.449999999999999 2.365 0  4.95 3.415 0  5.125 3.565 0  4.95 3.114999999999999 0  6.6125 2.365 0  5.3 1.9275 0  5.3 0.5912500000000001 0  4.95 0.5912500000000001 0  4.95 1.77375 0  4.6 0.5912500000000001 0  4.6 1.77375 0  4.25 0.5848104380198699 0  3.034071214050757 0 0  6.83125 4.465 0  5.211822570533285 3.116161307657225 0  5.199644089736418 3.708365586090832 0  5.560234206003997 2.013312058743169 0  5.3 1.555 0  4.3375 1.77375 0  3.71875 0.295625 0  7.05 4.520907405620923 0  5.3 3.139999999999999 0  5.3 3.739999999999999 0  5.7375 2.365 0  5.080778633500479 1.481310090775334 0  4.25 1.76731043801987 0  3.642035607025378 0 0  4.95 1.478125 0  4.73077863350048 1.481310090775334 0  4.6 1.478125 0  4.38125 1.478125 0  4.25 1.468465657029805 0  1.0625 1.77375 0  0 1.1825 0  1.215928785949243 2.365 0  0.9090712140507571 0 0  3.340928785949243 2.365 0  5.3 6.353185188758156 0  5.7375 6.465 0  1.251926214046421 0.8638539258762323 0  2.998073785953579 1.501146074123768 0  6.6125 0.5912500000000001 0  6.314484661954626 0 0  7.05 0.7355153380453735 0  6.175 7.265 0  7.05 6.576814811241844 0  1.823893178923864 2.365 0  1.59375 1.478125 0  0 0.5912500000000001 0  2.426106821076136 0 0  2.65625 0.8868750000000001 0  5.3 4.753185188758156 0  6.384382461419411 6.63086506016126 0  5.965647764605047 4.698780141966616 0  5.95625 0.5512968727055005 0  3.573985453476257 1.146376094877751 0  0.6756920837505003 1.21855677338705 0  0 1.77375 0  0.5312499999999999 2.069375 0  0.6079643929746215 2.365 0  6.446593558696915 1.754199000482114 0  3.610596224419451 1.784975253492358 0  0.6394873570286449 0.5799959292452963 0  2.417022476128119 1.737785075476752 0  1.83297752387188 0.6272149245232482 0  6.39375 5.265000000000001 0  7.05 5.432722216862766 0  5.95625 6.065 0  5.3 5.897277783137234 0  1.363606821076136 0 0  2.886393178923864 2.365 0  5.807242330977314 0 0  5.66317075542392 5.097277783137233 0  6.531608295550142 6.093321366176391 0  6.39375 0.8868750000000001 0  7.05 1.10327300706806 0  1.519910982436554 1.97058461431516 0  2.730089017563446 0.3944153856848401 0  3.118321402239236 1.051513924837064 0  1.080031360230293 0.4321124510033665 0  1.131373342792352 1.313422525825128 0  3.170050834191505 1.932854926851105 0  2.299923182630591 0.5816821397526466 0  1.950076817369409 1.783317860247354 0  6.613181962233742 1.324697214951463 0  6.6125 7.265 0  7.05 6.920907405620921 0  5.51875 6.865 0  5.3 6.809092594379077 0  5.983458173428153 6.850120530156478 0  5.7375 0.9806135633003248 0  3.795464392974622 2.365 0  0.4545356070253785 0 0  5.707817604026098 5.669324080326772 0  6.382560485385842 4.479437374820383 0  7.05 1.918015338045373 0  2.588389785493746 1.326880192167154 0  1.703300758037187 1.049840817825812 0  3.81583399465085 0.749837075035683 0  0.3530001285220923 0.9165457830971103 0  5.7375 7.265 0  0.3230327290960819 1.478125 0  6.645222772803423 5.648779777756588 0  5.3 4.409092594379079 0  0.6966084743942642 1.616326964752643 0  5.95625 2.0342218763767 0  1.49184819442877 0.3932638652425394 0  2.659125375411175 2.045841681839123 0  5.614524271201718 0.3478746969228768 0  5.999107992102964 5.308994605056308 0  2.127875375411175 2.365 0  2.037600823622477 0.3085922016883884 0  3.93649851739085 2.000575559990484 0  3.906455196942886 1.319043266534772 0  0 0.295625 0  0.9119465894619322 2.365 0  0.7968749999999998 1.9215625 0  3.338053410538068 0 0  3.453125 0.4434374999999999 0  7.05 0.3677576690226868 0  6.83125 0.295625 0  6.682242330977314 0 0  6.668949774591622 6.886595444085661 0  5.68188834913787 4.441195406600733 0  6.758701711409929 5.204768514052305 0  5.59129828859007 6.125231485947695 0  6.163759209134029 4.993941590579597 0  6.233034970219983 6.300479647380988 0  6.703009859999504 6.429199314158878 0  5.609311330585206 1.36875 0  0.3587822425707757 0.3500213638980786 0  6.721382088515962 0.9965688100980222 0  2.209060623332511 2.022170427178749 0  5.3 5.097277783137233 0  7.05 6.232722216862767 0  6.059295437662608 4.370887739173418 0  0.8690637789301248 0.8872863262959064 0  3.466735784094473 0.8089436482612071 0  3.295985566969465 1.339922954220738 0  6.39375 2.096484771253884 0  6.711845829197576 1.970371788042478 0  6.060173353037894 0.8687877612331139 0  6.301258297484685 6.955053672984521 0  6.754921001691115 1.626730465232963 0  6.49836349646597 0.2780484381883498 0  6.284029928285962 0.5769414109938407 0  6.06086349646597 0 0  5.643646453505415 4.768412579276713 0  5.655197341664164 0.6682895817033545 0  2.872957907069126 1.801096788690002 0  4.6 0.295625 0  4.906721366499522 0.2924399092246666 0  4.55672136649952 0.2924399092246666 0  4.95 0.295625 0  3.568196589461933 2.1179624530524 0  3.620056836640555 1.464083854703579 0  3.927107481851438 1.660653323618258 0  0.7896275243076972 0.2971318722880981 0  6.12561317803929 1.761463214735561 0  6.326880341955087 1.460708780209755 0  1.429466162327612 1.207949778943681 0  2.296927843562433 1.446513085688053 0  1.980950224264427 0.9038259360937273 0  1.52702416133256 0.7076527164671081 0  0.4258514322303463 1.77420426839212 0  1.859375 1.3303125 0  2.390625 1.0346875 0  5.3 0.8868750000000001 0  5.169221366499521 0.8836899092246666 0  4.95 0.8868750000000001 0  4.819221366499521 0.8836899092246666 0  4.6 0.8868750000000001 0  4.46922136649952 0.8836899092246666 0  4.25 0.8772156570298049 0  6.140746550782823 0.3007326298726944 0  6.83125 3.565 0  7.05 3.265 0  6.83966663645357 3.625095246727552 0  7.05 2.665 0  1.214780807536237 2.049765590706595 0  3.186062312294412 0.276090769979388 0  4.29375 2.069375 0  4.6 2.069375 0  4.25 2.066155219009935 0  4.643278633500479 2.072560090775334 0  1.328125 1.6259375 0  3.946017803512689 0 0  3.984375 0.1478125 0  2.122124624588825 0 0  2.921875 0.7390625 0  0.3039821964873107 2.365 0  0.2656249999999999 2.2171875 0  1.519910982436554 2.365 0  2.730089017563446 0 0  3.267848714624348 1.643786705677805 0  3.962128140614412 0.4810864575242905 0  6.088735565830333 6.566440677959418 0  2.87287907903055 1.226769242480236 0  5.997734206003997 1.422062058743168 0  2.335585913229898 0.2848909091867997 0  1.915727811171581 2.080394075538645 0  5.3 0.295625 0  5.256721366499521 0.2924399092246666 0  0 1.478125 0  0 0.8868750000000001 0  4.95 2.069375 0  4.993278633500479 2.072560090775334 0  0 2.069375 0  4.25 0.2924052190099349 0  3.841572739148465 1.037556133343355 0  6.247685367118326 6.002851795106343 0  5.596179388183639 5.390271738108119 0  0.361226814135335 0.633338030484755 0  0.390270021626804 1.200123785848559 0  6.341029012534215 4.765551947817491 0  5.555765280690617 2.58528286847223 0  6.818326003308544 6.060675919673228 0  5.628125 6.665 0  5.3 6.581138891568616 0  6.721875 4.665 0  7.05 4.748861108431384 0  2.729013460599041 1.564984855461338 0  1.766005998581615 0.3591878959166037 0  6.83125 7.265 0  5.527503434040016 4.065 0  5.51875 4.0025 0  6.414708980099403 5.79017371349605 0  5.555816552627036 1.629876120346811 0  6.405574324324323 3.185945945945946 0  6.405574324324323 2.585945945945946 0  5.944425675675676 3.344054054054054 0  5.95625 2.965 0  5.944425675675676 2.744054054054054 0  6.83125 2.965 0  6.843074324324323 3.035945945945945 0  0.9539220190930711 1.522188675922875 0  5.875323973896693 0.2985022980005431 0  6.284375 5.465 0  1.28446357176077 0.6008092986991798 0  2.93210457621998 2.068557687752316 0  7.05 2.141507669022687 0  6.420010302120049 4.065 0  6.40216663645357 3.750095246727552 0  6.39375 3.565 0  5.846875 6.265 0  0.2127682824147084 1.9215625 0  0.607699940173331 0.8431476678143333 0  1.270397973338397 0.2479363044321548 0  5.826861590721315 1.225363214864182 0  5.895744270062652 4.959765766084354 0  1.590874624588825 0 0  5.553621165488657 0 0  3.113660982436554 2.365 0  1.050077073521563 0.7053514850398296 0  5.
[...]
<PointData  Scalars="f_174"> 
<DataArray  type="Float64"  Name="f_174"  format="ascii">5.6520571561331518e+07  4.3613533559025630e+07  7.3938297929254249e+07  3.1468003944776524e+07  3.9415524293707237e+07  2.8014723552770060e+07  2.9232882704981331e+07  2.5940558635205314e+07  3.4653733344276123e+07  2.4065108426562056e+07  2.2172495887785323e+07  2.3930413159767415e+07  2.0349622657404836e+07  3.0281087913937587e+07  2.0376134899575036e+07  1.8643859545102287e+07  1.6989363983186856e+07  1.8594085884430602e+07  1.5410006333801785e+07  2.0709352414090157e+07  1.1704151028413204e+07  1.0209358492458936e+07  8.8166470491102077e+06  7.5259967030347362e+06  2.3303980395520856e+06  8.9695936563163002e+01  5.0553914113683671e+07  3.5393102003680341e+07  2.8639480633045249e+07  3.1270539885507517e+07  2.1269477519549172e+07  1.9497426761999514e+07  2.5012143727148749e+07  2.3064322241381660e+07  2.7043271805726986e+07  1.3560031272787826e+07  1.2080798419966422e+07  1.0697498895511648e+07  1.7797581162290718e+07  1.8582976806211159e+07  3.8525070174975917e+06  6.0247721610047206e+07  4.1630699202644758e+07  3.7575626733955503e+07  3.3493289629999328e+07  3.0106177642078083e+07  2.7207988315706249e+07  2.9117169337595221e+07  2.2475473494888242e+07  2.0374252904726833e+07  1.8638651765757360e+07  2.4029910522684224e+07  2.6323603014057055e+07  2.1833289094837543e+07  2.5062286606912069e+07  1.4335907915183354e+07  1.2808342551237259e+07  1.1377237662811298e+07  9.9931949512079637e+06  1.6723372499326482e+07  2.4827636830376606e+07  8.3024364446296794e+06  1.3770883802797664e+06  4.7179190958974577e+07  3.7463584216624320e+07  2.9547514799463343e+07  3.3423931220632192e+07  3.3028550110289712e+07  2.5452365188610841e+07  2.1782813369916279e+07  1.9011174577373508e+07  1.9983086784164853e+07  1.7338546121829920e+07  2.5542724780303292e+07  2.2560013190989688e+07  2.8706125625058904e+07  1.9051685188336890e+07  1.2017374964948134e+07  1.5906389484021919e+07  1.0544977978563229e+07  1.4364135362276366e+07  9.1740727388693970e+06  4.9101349224771718e+06  5.1697700558927014e+07  3.6397096231112398e+07  4.0544927769406117e+07  3.0700505061049007e+07  3.4467252709662907e+07  3.1822998608527400e+07  2.6532586870547712e+07  2.1265512236268546e+07  2.3109927807708923e+07  1.9499938836380027e+07  1.7925415565204877e+07  1.9486914175432522e+07  2.1252478225295376e+07  1.7805725368106999e+07  1.6303452069195107e+07  2.4978856687087376e+07  2.6969517574393291e+07  2.3094248876280572e+07  2.7603403593029603e+07  1.7904431988135390e+07  1.2411953769109748e+07  1.0914382992155390e+07  1.5485012701783758e+07  9.5182506289883517e+06  1.3965335816823632e+07  8.2089252728913920e+06  3.8355913777225451e+06  4.5412073520787641e+07  2.4543705654080957e+07  2.8376507796576299e+07  1.9655973067420200e+07  1.5997600988264663e+07  1.2881562358622003e+07  5.9414696171336435e+06  4.7592308452391885e+07  2.5193094116118867e+07  2.9207774758487552e+07  2.2654493491793111e+07  1.4658384542545725e+07  1.2501191689685393e+07  5.5267649829602670e+06  1.4071305491803588e+07  1.3154895394994391e+07  1.2602591540522328e+07  1.1730645592807977e+07  1.1183484233922286e+07  2.8471434929895224e+06  5.8176900258532190e+05  4.4907862970918361e+06  3.4367750227834139e+05  1.1638214807285752e+07  4.8869458484381534e+07  5.3666666657405056e+07  1.5980861391260438e+06  7.0762069316989863e+06  1.8933642842030674e+07  1.6613613192535359e+07  2.1808445043124262e+07  6.5038882581753701e+07  6.6978246882826790e+07  6.2972275859767394e+06  3.4034731638919520e+06  1.4453362821853190e+05  2.4523659719109442e+06  4.2877241742692366e+06  3.6433423634834372e+07  6.1118454123225994e+07  4.0849395936520830e+07  1.5402690590208178e+07  7.6005472800002377e+06  1.2634277297526372e+06  1.3103597988031590e+06  2.3012336482462096e+06  3.0071325127496780e+06  2.2880393506592415e+07  1.0167479475209510e+07  5.3632509750371333e+05  6.1755401464076387e+06  2.0692321561121305e+06  4.8896909406189770e+07  5.5918572099271648e+07  5.2144296622515872e+07  4.5199512241579734e+07  7.7396237917034538e+05  9.9187788101089876e+06  1.4051674158576451e+07  4.1742749317316793e+07  5.7491428537307791e+07  1.8602808252735320e+07  2.3111991024217580e+07  4.3724887353540454e+06  3.4148555195260267e+06  5.9409833662601719e+06  7.8773121312681667e+05  2.1528313362753396e+06  9.2268446424460616e+06  2.8258273804750834e+06  5.0262079914275743e+06  2.1583265945292551e+07  6.9442067023828045e+07  7.0429768633357644e+07  5.5123490588783912e+07  5.2642356365935050e+07  5.9341468368406825e+07  1.5596390839720339e+07  1.3466422929973781e+07  8.4604043500388289e+04  4.6707226435034201e+07  4.2155826064527199e+07  2.7361756324376471e+07  5.3675057983721942e+06  2.6877486280774651e+06  7.1467114572597351e+06  5.5416226910967054e+05  6.0730617247726716e+07  1.1074460731131900e+06  5.4420478139999814e+07  3.3921093915838286e+07  1.8512227804602478e+06  2.1825494983534422e+07  1.2091932654808278e+06  7.9437017645138977e+06  1.3384354172696872e+07  4.6085262280408546e+07  7.2772288341356320e+06  1.9184992536647131e+06  1.2334626019356521e+07  9.3301640866098460e+06  3.4736772896434610e+04  3.6914532571919300e+06  2.5510364737100913e+06  4.6427107316036746e+06  5.3630246023413446e+06  2.0989331622410495e+07  1.9625398459592123e+07  1.8605138636191949e+07  6.6300387743233100e+07  3.6796718814679243e+07  5.1361768825213969e+07  4.9501401547465675e+07  4.4760828048873894e+07  5.6684059796959706e+07  6.2220296470123202e+07  1.6577939823243923e+07  1.8173257585961858e+05  2.0794282799548127e+07  6.4561239065586142e+06  3.9003509839024529e+07  6.3584011362302832e+07  3.8924944969941199e+07  1.1131492870004796e+06  6.2293019510196578e+06  7.4101639351438358e+06  2.4605503053271096e+07  2.5662872924703673e+07  1.6804376879899740e+07  6.3359785395067617e+07  2.3922836427153163e+07  1.7755648189079475e+07  1.7133769618373804e+07  1.5305846819104495e+07  3.9028170880204335e+07  1.4226744618563015e+07  7.7549743479784681e+06  8.9969797380360831e+06  1.0208307298309885e+07  8.8279885628709458e+06  1.0389924766573377e+07  1.1436377904791923e+07  8.9096216970451660e+06  1.0791246899757300e+07  4.0561171703379910e+05  2.1171700798698917e+07  2.0670156879036840e+07  2.5041923678478641e+06  4.9756876841676868e+06  2.8906088863329785e+06  1.7363969327594789e+06  1.6486746037749853e+06  3.6388536195741361e+06  4.0611171784505686e+06  1.3245925409536779e+07  1.2660625853289867e+07  1.1738732484419487e+07  1.1191020729591565e+07  1.0331311199774414e+07  9.8209005992410090e+06  8.9930026217938606e+06  1.5899319961964795e+07  3.7891807102716014e+07  3.6992791843981944e+07  3.8434662348347425e+07  3.2411082099351108e+07  3.7692560113608604e+06  4.3855887908340842e+06  1.4115937904913308e+07  1.5434769310188601e+07  1.3916701075462762e+07  1.5642492831831496e+07  3.1383897193788183e+06  6.4878682646635883e+06  6.6599694674832206e+06  1.8762674928657785e+06  4.5609978733814992e+06  2.5158324526575897e+06  2.1905855812686183e+06  5.3656587587063229e+06  3.1054030256994851e+06  8.4356722885375582e+06  7.0072321456067460e+06  5.7763016427343465e+07  5.8124614115646351e+06  1.8752716935726956e+07  2.4363446175048826e+06  5.7590695734583521e+06  1.1884891693167958e+07  1.1690659635097664e+07  9.1005105561437958e+05  3.2684528974058409e+05  1.7017044862719703e+07  1.7235542595546026e+07  1.7841683561794511e+06  7.7021766076127309e+06  8.0990134282718524e+06  5.4146683820310645e+07  4.3549525399050288e+07  3.4947578051456629e+05  8.6311456397017767e+05  4.4221824944866739e+07  2.3050523860870879e+07  5.9783982550873026e+07  5.4402976388091087e+07  5.0742899076572113e+07  4.6300855153063439e+07  4.9629980840632461e+07  6.5067686765442733e+06  1.5461832526220100e+06  7.1678623802591965e+07  3.2954215281636968e+07  3.2444927743502893e+07  5.3704256134773687e+07  1.7578247351453476e+07  3.2143831764539979e+07  2.7864053238058105e+07  3.0405973495641347e+07  2.7809983942001663e+07  2.6240432454882465e+07  3.3222585972208243e+07  3.3834445571391240e+07  2.1763463085625144e+06  1.4567577960300108e+07  4.9733488189901568e+07  1.2364722227888571e+06  8.9373981685939301e+06  2.8779432135352153e+07  3.9048045484751180e+07  3.6424306416432716e+07  3.4931096771625012e+07  5.2913912687812842e+07  1.6300281318086172e+06  7.5334201428049384e+05  7.9088494418338023e+05  1.7000931190603860e+07  4.2418278095833950e+07  1.0542183041696423e+06  1.2851095557815732e+07  1.0765281900997810e+07  1.0984946724213581e+06  3.2083280011770770e+07  3.4406217647707500e+07  3.6007553919233859e+07  2.7064374573102951e+07  2.0108357395453662e+04  1.5453994854173360e+06  4.1491256810621440e+07  3.6966179925234006e+06  4.2167128463176265e+06  5.2979225647275820e+06  3.7857686361626973e+06  4.1240542986474000e+06  2.8493532343441611e+06  3.5378912197641231e+07  3.0880092408868063e+07  3.6445552812164396e+07  2.8925040608462594e+07  2.9482562063409548e+07  1.9231956313874282e+07  2.1334274490918867e+07  6.5505253514600530e+07  5.1039119177979184e+06  2.2321911327002510e+07  1.8557684232361186e+07  2.9344477174525823e+07  2.8780416750520699e+07  4.2066643937606439e+07  4.4515335992091030e+07  4.5586236462750040e+07  2.1206509172233972e+06  5.9208159953807667e+07  5.2958511191439508e+06  4.1585150393408030e+07  6.2872711407891050e+07  5.8484947901058033e+07  2.9333639051808207e+06  5.1554498910539215e+06  1.4659304762130180e+07  1.4423383498122923e+07  3.7711307647930510e+07  6.1956454396751095e+06  4.1394534179683872e+07  4.9112794337969922e+07  5.1357616663649939e+07  5.8069947657542050e+07  5.7501451221111938e+07  3.2451154943570038e+06  3.5395412368880645e+06  3.0938048888498982e+06  2.5806768399273870e+06  4.7703020836135052e+07  4.3402547323206060e+07  4.6492285144923121e+07  4.8045069017830767e+07  1.8006599422680107e+06  5.5982037222885927e+06  6.5722624074823931e+06  1.0539952924849236e+07  9.6194121083165240e+06  6.7546114735172840e+05  5.3745503554042522e+05  5.0705051950656890e+05  7.7781273693110161e+06  3.3002171729749208e+06  4.1909077522344459e+06  4.4261804628863716e+06  2.0020953534327652e+07  2.0430438354991436e+07  7.0720606644110829e+06  2.2262816187715694e+07  5.1837060967006803e+07  5.5259336455881268e+07  6.2235218516964816e+07  5.6519830589091204e+07  5.4568149026472576e+07  5.5829020625472210e+07  4.7021746004783943e+07  5.3794223949776165e+07  1.2538335178054649e+07  1.9243211472436468e+05  9.0980193237117454e+06  4.9016519503063396e+07  5.1600654717194840e+07  1.5474786581605941e+07  7.4663415332686733e+06  3.9728632106792592e+07  2.0940654660213285e+05  2.6039910228633754e+07  5.7935875930989860e+06  4.9560782124082129e+06  3.0454656269393671e+07  2.3841924945597321e+07  6.0561209287484169e+07  3.2442130479235305e+06  3.0435740758103388e+06  2.2576107127283700e+06  4.9970705257607205e+05  2.3555764267200939e+07  3.1221756702101091e+05  3.9870695366779037e+07  6.7228754601633787e+07  6.6379302500335895e+07  7.1139102815243229e+06  8.3700435801724950e+06  3.6146667355965739e+06  4.5329050362943346e+06  6.5502235204036497e+06  7.8972210900727706e+05  1.2702427962418059e+06  1.2412853577785338e+06  3.1235242115512360e+07  2.4755124612901900e+07  2.5284482985204432e+07  1.9334067764819868e+07  2.6315950143499643e+07  2.0006463313395351e+07  1.9113136857733972e+07  2.1499334072356343e+07  5.8613043765752763e+07  1.6325815790759286e+05  3.4237310605767921e+07  2.8450127884124756e+07  2.4293180806039829e+07  2.9807847683703773e+07  3.6689237281896658e+07  2.8405493974786843e+06  4.3892135488787189e+07  9.1121921786272731e+06  2.2873885512528196e+07  1.8725856356142767e+07  2.2404005524238069e+07  1.6833066413408469e+07  8.0046138812023336e+06  6.3617432257203788e+07  9.5002334365334027e+06  1.0943988064045949e+07  8.1585555328795984e+06  3.9561236692165253e+06  4.9102735644997517e+06  2.3378776848279830e+07  8.8833553256344504e+05  1.3485700645585850e+07  4.1238542128714487e+07  4.2813029392683096e+07  2.5605094740024704e+07  9.6946831279541983e+05  1.6204047600810418e+06  1.9506744035936307e+07  2.0819992352272574e+07  2.1412436043450046e+07  3.2687010127268381e+07  3.4524311426837072e+07  2.7057426175484113e+07  1.6729348160427909e+06  6.8800439174917802e+07  4.4127546283870958e+07  4.9025077120007493e+07  4.4402264554651313e+07  7.2176911801588789e+07  1.9916292118209891e+07  5.2026762833487280e+07  5.6313114377843432e+07  3.9410171960414641e+07  1.2671678868296857e+06  2.4155879039048213e+06  6.2005485588098928e+07  4.4649045266258113e+07  1.4716783461601464e+06  2.3319096753907269e+06  1.2107139378814135e+07  1.1813508656402307e+07  1.3167992912503418e+07  1.4340104887659695e+07  1.3685512019725211e+07  4.7485508440350451e+07  6.3985611105445988e+07  2.1355305894047733e+07  2.0547746873930756e+07  4.6526070692192223e+06  9.9427625395240486e+06  8.3986349804454893e+06  1.3490031708156422e+07  1.3198177290542567e+07  8.9617840911348723e+06  9.2175708814713228e+06  1.6924657838193428e+07  1.8242347086494148e+07  1.0570082823199993e+07  1.7752454020116396e+07  8.9135030459149033e+06  1.4993393278075235e+07  1.4688266441920111e+07  1.3150864510912590e+07  1.1113601060413742e+07  1.1993084938110422e+07  1.2583828284016475e+07  3.8468277637280405e+07  2.9952246658201558e+06  2.5354970098703830e+06  5.4466032303684145e+07  7.7842610001949314e+06  1.1647251384492097e+07  5.5245687530470662e+07  6.6948256910145348e+06  3.8706722766142212e+07  8.0078698413710180e+05  1.1733541179819070e+06  1.3982876225456365e+06  4.5647696335220821e+07  6.7920184908170551e+07  3.2527788652278312e+07  4.2802624196394145e+07  1.5861244663659377e+07  2.3501284946831193e+07  2.4919884471464634e+07  2.2873771545914665e+07  1.9456851224956181e+07  1.8198438509966385e+07  1.7649794481640946e+07  2.0498987302467087e+06  2.5365353699213672e+07  2.7112889600481421e+07  1.8519171900884442e+06  2.0997763901877361e+06  1.6171144275995584e+06  2.3481423619620106e+06  5.9966135473544188e+07  6.4522241761656128e+07  1.1828511750143167e+07  1.2293812882518195e+07  1.0456191872514199e+07  1.3895441700789580e+07  4.0798927881755116e+06  6.3818818186967727e+06  8.3925126535066981e+06  6.0888345246306286e+04  2.7308198033638634e+06  2.2213687208441352e+06  5.9976967469125707e+06  6.2827124830475245e+06  1.4517405372280588e+07  1.4087676243055370e+07  1.5131466950894566e+07  3.3109770804000303e+07  3.8194374452084288e+07  2.8754581496191308e+07  3.3519406691137116e+07  2.9515106810605202e+07  3.7011828673486831e+05  6.1345896481246114e+07  9.4645040558010451e+06  8.5701911123329774e+06  9.8919714570674226e+06  4.9192868124648459e+07  4.7326252174423523e+07  5.1536006544900700e+07  5.3713634400147520e+07  4.9434220662907913e+07  5.1563835442309953e+07  5.2416493274532370e+06  1.6488345541670749e+07  1.6969335919241738e+07  1.6600222723081388e+07  1.7595291557952866e+07  1.9643161310775887e+07  2.0117219094303451e+07  2.0779692863817263e+07  2.3923048568762928e+07  6.2947017616183739e+06  3.2747473418871141e+06  3.7496631316345199e+06  5.7346446083285414e+07  5.6624905246429741e+06  1.1292416102053404e+07  1.2303265737631969e+07  1.0833532245546065e+07  1.2793651174370706e+07  1.3745231428356683e+07  1.4761575908690413e+07  1.3268954960193293e+07  1.5266330590285638e+07  9.7090444210702609e+06  4.4044548221438266e+07  3.9182325905627899e+07  5.6486810283665627e+07  5.9022721360889517e+07  1.0665492082868448e+05  1.8888229054818843e+07  2.0215661508187391e+07  1.5631152171777023e+06  1.6371814144085642e+07  1.5395299598181544e+07  3.4305677353576070e+05  5.7829895031965651e+07  4.7460635857683495e+07  5.3002613293233849e+07  5.0841548204311743e+07  2.2122092765748978e+07  4.8573942426264361e+07  5.7019185908041382e+06  1.7976009507181186e+07  3.2386092049529422e+06  2.1493521245382324e+07  2.1547114585972289e+06  2.0423796716462434e+06  4.6806258463313773e+07  4.5864990714003719e+07  6.7814564106633291e+06  6.5507589830092043e+06  1.0142748262734165e+07  9.6767512645764370e+05  3.5282926233853862e+07  1.7541245503952131e+07  9.4697043442377709e+06  1.0234544305428324e+07  1.4706193695255268e+07  5.0082476301509790e+07  1.8830780673812397e+06  1.8649488746654056e+07  1.2420215901762795e+07  7.1514258535115225e+06  3.7175272041448064e+07  2.8940424889961805e+07  3.0199699861910965e+07  2.8214455846626684e+07  3.8191167516406290e+06  7.9456356180082513e+06  2.4025129643455323e+07  2.6079924071731579e+07  2.4425928781374566e+07  5.2505860765628316e+07  2.1155589522947811e+07  2.1858586744570617e+07  2.0264019589867141e+07  7.0876835557748973e+06  4.0309982316053279e+07  6.1908564930939764e+07  3.5169972867321931e+07  6.5273937889408939e+07  6.8696872430558801e+07  3.7682664290467434e+07  9.9234225657914318e+06  1.0828743803572979e+07  1.1609316976077089e+07  9.4817871618669350e+06  1.2246303771366343e+07  1.3081994567197151e+07  1.3418566229089446e+07  1.2598180573164672e+07  1.1196727081051456e+07  1.1970396008528680e+07  1.0918955240084250e+07  6.0263615587832458e+07  9.6979412735315859e+06  9.2257001071116179e+06  3.8027585232875660e+07  7.5703997591896541e+06  7.0742795193165150e+06  6.9973227036659643e+06  8.2187692638484826e+06  1.6559602903314650e+07  1.6237927714200385e+07  1.7847624757094849e+07  7.5631485511054611e+06  6.6774790931205451e+06  1.9633029096517701e+07  3.1962811310538858e+07  3.6530701181214996e+07  2.0609229345048377e+06  1.1490236437779734e+07  1.0554441532402325e+07  4.7233912496022722e+06  6.4835912469218351e+07  1.5316028335448740e+07  1.7655146616725039e+07  8.2629677293549236e+06  2.5619364082698293e+07  2.4627981503853053e+07  1.8136913346248645e+07  3.3718601364157297e+07  1.6308612412111145e+07  1.6202486257005660e+07  1.6853069439832229e+07  1.8682248662134759e+07  1.9160850121607229e+07  2.0626285233856745e+07  2.2575801645456322e+07  2.8180628426247165e+07  1.8659095166917354e+07  4.0575449778476968e+07  1.6145832663595598e+07  3.4607563931877567e+06  3.0395795985543016e+07  3.4570959643263765e+07  7.0666163205783740e+07  5.6328597248691656e+07  4.2546818970940374e+07  2.1339572764729656e+07  1.1438823159509310e+07  2.4912324598517731e+07  4.0794566124856852e+07  8.5809356282373350e+06  7.3045494055753704e+06  7.8250144700395418e+06  5.5503233964482136e+07  1.2909918784189912e+07  1.9856137492434353e+07  7.9170949831884513e+06  5.3060240907260531e+05  1.0611435056165352e+07  1.0336704279907560e+07  9.8095490858559799e+05  4.7241955398976412e+06  1.6061311109253334e+07  1.5335344782514675e+07  1.7884594865125891e+07  6.9386547984833652e+06  1.4446022504486706e+07  8.3132507140467381e+06  3.5097387459852174e+05  5.8547153893140715e+05  2.6450514001421358e+07  3.0619753457955569e+07  3.1923363136107355e+07  2.7652488270464834e+07  7.1895285599688999e+06  1.1096755738056947e+07  1.5982181575500265e+07  2.2685274373637676e+07  1.2642231507562010e+07  4.5464465441561125e+07  2.2231114526770716e+06  1.9619780293479495e+07  2.1165053399361990e+07  1.4318623651140928e+06  1.7512573802838943e+06  2.5991623001423678e+06  6.0748349733416878e+07  3.6788095057100847e+07  3.4898996539855093e+07  3.7756590028768487e+07  4.9757396833995013e+06  3.2361863191807694e+06  3.3307138956307969e+06  4.1739270198183232e+06  4.2295072098999349e+06  4.6551702051658379e+06  4.8646699621283887e+06  3.9905708105391348e+06  4.4306957256037490e+06  4.3705049567984082e+06  5.5665861788090980e+06  5.1873693604463758e+06  5.4808633636489302e+07  2.8160324805918247e+07  5.6353370547343725e+06  5.0145760719591647e+07  2.4399803776602461e+06  2.7890928163027815e+06  3.3544840533260163e+06  6.1213181148349062e+07  2.4158587659033060e+07  4.8212168497987442e+07  2.6973540801462876e+06  2.9676457097380385e+06  1.0338770026377717e+07  4.2389434454477921e+07  4.0428535379037857e+07  5.8994899609956555e+06  2.3681716537193283e+07  5.9218672147919843e+06  1.5769615102943048e+07  1.2095126676231865e+06  5.0957881203545615e+07  3.1330816733668175e+07  3.5812089477006629e+07  2.0009892810916476e+07  3.7475205170067800e+06  2.081761488516718