<?xml version="1.0"?>
<VTKFile type="UnstructuredGrid"  version="0.1"  >
<UnstructuredGrid>
<Piece  NumberOfPoints="1122" NumberOfCells="2077">
<Points>
<DataArray  type="Float64"  NumberOfComponents="3"  format="ascii">5.3 7.265 0  7.05 4.065 0  7.05 7.265 0  5.3 4.065 0  7.05 3.565 0  5.3 3.565 0  4.95 4.065 0  4.95 3.565 0  7.05 2.965 0  5.3 2.965 0  4.95 2.965 0  4.6 3.565 0  4.6 2.965 0  7.05 2.365 0  5.3 2.365 0  4.95 2.365 0  4.6 2.365 0  4.25 2.965 0  4.25 2.365 0  7.05 0 0  5.3 0 0  4.95 0 0  4.6 0 0  4.25 0 0  0 2.365 0  0 0 0  6.175 5.665 0  6.175 3.815 0  5.125 3.815 0  6.175 3.265 0  5.125 2.665 0  4.775 2.665 0  5.125 3.265 0  4.775 3.265 0  6.175 2.665 0  5.125 1.1825 0  4.775 1.1825 0  4.425 1.1825 0  4.425 2.665 0  6.175 1.1825 0  2.125 1.1825 0  7.05 5.888629622483688 0  5.3 5.441370377516312 0  6.210013736160064 4.065 0  6.175 3.565 0  5.3 3.870163890393343 0  4.95 3.759836109606658 0  6.175 2.965 0  5.3 2.712311099736245 0  4.95 2.665 0  4.6 2.665 0  4.95 3.265 0  5.3 3.312311099736244 0  4.6 3.217688900263754 0  6.175 2.365 0  5.3 1.1825 0  4.95 1.1825 0  4.6 1.1825 0  4.25 1.16962087603974 0  4.25 2.617688900263755 0  7.05 1.471030676090747 0  2.431857571898486 2.365 0  1.818142428101514 0 0  6.6125 4.865 0  6.629333272907139 3.685190493455103 0  5.713851351351352 3.423108108108108 0  5.7375 3.94 0  6.636148648648648 3.106891891891892 0  5.713851351351352 2.823108108108108 0  5.025580653828612 2.835433164865235 0  4.874419346171388 2.494566835134765 0  4.675580653828613 2.835433164865235 0  4.524419346171387 2.494566835134765 0  5.025580653828612 3.435433164865235 0  4.874419346171388 3.094566835134765 0  6.636148648648648 2.506891891891892 0  5.820468412007996 1.661624117486337 0  5.213442732999042 0.5848798184493331 0  5.036557267000958 1.780120181550667 0  4.863442732999042 0.5848798184493331 0  4.686557267000959 1.780120181550667 0  4.513442732999041 0.5848798184493331 0  3.1875 0.5912499999999999 0  7.05 4.976814811241844 0  6.6125 3.565 0  6.630006868080033 4.065 0  5.7375 3.565 0  5.755006868080033 4.065 0  6.6125 2.965 0  5.7375 2.965 0  4.95 2.815 0  5.125 2.965 0  4.95 2.515 0  4.800000000000001 2.365 0  4.6 2.815 0  4.775 2.965 0  4.6 2.515 0  4.449999999999999 2.365 0  4.95 3.415 0  5.125 3.565 0  4.95 3.114999999999999 0  6.6125 2.365 0  5.3 1.9275 0  5.3 0.5912500000000001 0  4.95 0.5912500000000001 0  4.95 1.77375 0  4.6 0.5912500000000001 0  4.6 1.77375 0  4.25 0.5848104380198699 0  3.034071214050757 0 0  6.83125 4.465 0  5.211822570533285 3.116161307657225 0  5.199644089736418 3.708365586090832 0  5.560234206003997 2.013312058743169 0  5.3 1.555 0  4.3375 1.77375 0  3.71875 0.295625 0  7.05 4.520907405620923 0  5.3 3.139999999999999 0  5.3 3.739999999999999 0  5.7375 2.365 0  5.080778633500479 1.481310090775334 0  4.25 1.76731043801987 0  3.642035607025378 0 0  4.95 1.478125 0  4.73077863350048 1.481310090775334 0  4.6 1.478125 0  4.38125 1.478125 0  4.25 1.468465657029805 0  1.0625 1.77375 0  0 1.1825 0  1.215928785949243 2.365 0  0.9090712140507571 0 0  3.340928785949243 2.365 0  5.3 6.353185188758156 0  5.7375 6.465 0  1.251926214046421 0.8638539258762323 0  2.998073785953579 1.501146074123768 0  6.6125 0.5912500000000001 0  6.314484661954626 0 0  7.05 0.7355153380453735 0  6.175 7.265 0  7.05 6.576814811241844 0  1.823893178923864 2.365 0  1.59375 1.478125 0  0 0.5912500000000001 0  2.426106821076136 0 0  2.65625 0.8868750000000001 0  5.3 4.753185188758156 0  6.384382461419411 6.63086506016126 0  5.965647764605047 4.698780141966616 0  5.95625 0.5512968727055005 0  3.573985453476257 1.146376094877751 0  0.6756920837505003 1.21855677338705 0  0 1.77375 0  0.5312499999999999 2.069375 0  0.6079643929746215 2.365 0  6.446593558696915 1.754199000482114 0  3.610596224419451 1.784975253492358 0  0.6394873570286449 0.5799959292452963 0  2.417022476128119 1.737785075476752 0  1.83297752387188 0.6272149245232482 0  6.39375 5.265000000000001 0  7.05 5.432722216862766 0  5.95625 6.065 0  5.3 5.897277783137234 0  1.363606821076136 0 0  2.886393178923864 2.365 0  5.807242330977314 0 0  5.66317075542392 5.097277783137233 0  6.531608295550142 6.093321366176391 0  6.39375 0.8868750000000001 0  7.05 1.10327300706806 0  1.519910982436554 1.97058461431516 0  2.730089017563446 0.3944153856848401 0  3.118321402239236 1.051513924837064 0  1.080031360230293 0.4321124510033665 0  1.131373342792352 1.313422525825128 0  3.170050834191505 1.932854926851105 0  2.299923182630591 0.5816821397526466 0  1.950076817369409 1.783317860247354 0  6.613181962233742 1.324697214951463 0  6.6125 7.265 0  7.05 6.920907405620921 0  5.51875 6.865 0  5.3 6.809092594379077 0  5.983458173428153 6.850120530156478 0  5.7375 0.9806135633003248 0  3.795464392974622 2.365 0  0.4545356070253785 0 0  5.707817604026098 5.669324080326772 0  6.382560485385842 4.479437374820383 0  7.05 1.918015338045373 0  2.588389785493746 1.326880192167154 0  1.703300758037187 1.049840817825812 0  3.81583399465085 0.749837075035683 0  0.3530001285220923 0.9165457830971103 0  5.7375 7.265 0  0.3230327290960819 1.478125 0  6.645222772803423 5.648779777756588 0  5.3 4.409092594379079 0  0.6966084743942642 1.616326964752643 0  5.95625 2.0342218763767 0  1.49184819442877 0.3932638652425394 0  2.659125375411175 2.045841681839123 0  5.614524271201718 0.3478746969228768 0  5.999107992102964 5.308994605056308 0  2.127875375411175 2.365 0  2.037600823622477 0.3085922016883884 0  3.93649851739085 2.000575559990484 0  3.906455196942886 1.319043266534772 0  0 0.295625 0  0.9119465894619322 2.365 0  0.7968749999999998 1.9215625 0  3.338053410538068 0 0  3.453125 0.4434374999999999 0  7.05 0.3677576690226868 0  6.83125 0.295625 0  6.682242330977314 0 0  6.668949774591622 6.886595444085661 0  5.68188834913787 4.441195406600733 0  6.758701711409929 5.204768514052305 0  5.59129828859007 6.125231485947695 0  6.163759209134029 4.993941590579597 0  6.233034970219983 6.300479647380988 0  6.703009859999504 6.429199314158878 0  5.609311330585206 1.36875 0  0.3587822425707757 0.3500213638980786 0  6.721382088515962 0.9965688100980222 0  2.209060623332511 2.022170427178749 0  5.3 5.097277783137233 0  7.05 6.232722216862767 0  6.059295437662608 4.370887739173418 0  0.8690637789301248 0.8872863262959064 0  3.466735784094473 0.8089436482612071 0  3.295985566969465 1.339922954220738 0  6.39375 2.096484771253884 0  6.711845829197576 1.970371788042478 0  6.060173353037894 0.8687877612331139 0  6.301258297484685 6.955053672984521 0  6.754921001691115 1.626730465232963 0  6.49836349646597 0.2780484381883498 0  6.284029928285962 0.5769414109938407 0  6.06086349646597 0 0  5.643646453505415 4.768412579276713 0  5.655197341664164 0.6682895817033545 0  2.872957907069126 1.801096788690002 0  4.6 0.295625 0  4.906721366499522 0.2924399092246666 0  4.55672136649952 0.2924399092246666 0  4.95 0.295625 0  3.568196589461933 2.1179624530524 0  3.620056836640555 1.464083854703579 0  3.927107481851438 1.660653323618258 0  0.7896275243076972 0.2971318722880981 0  6.12561317803929 1.761463214735561 0  6.326880341955087 1.460708780209755 0  1.429466162327612 1.207949778943681 0  2.296927843562433 1.446513085688053 0  1.980950224264427 0.9038259360937273 0  1.52702416133256 0.7076527164671081 0  0.4258514322303463 1.77420426839212 0  1.859375 1.3303125 0  2.390625 1.0346875 0  5.3 0.8868750000000001 0  5.169221366499521 0.8836899092246666 0  4.95 0.8868750000000001 0  4.819221366499521 0.8836899092246666 0  4.6 0.8868750000000001 0  4.46922136649952 0.8836899092246666 0  4.25 0.8772156570298049 0  6.140746550782823 0.3007326298726944 0  6.83125 3.565 0  7.05 3.265 0  6.83966663645357 3.625095246727552 0  7.05 2.665 0  1.214780807536237 2.049765590706595 0  3.186062312294412 0.276090769979388 0  4.29375 2.069375 0  4.6 2.069375 0  4.25 2.066155219009935 0  4.643278633500479 2.072560090775334 0  1.328125 1.6259375 0  3.946017803512689 0 0  3.984375 0.1478125 0  2.122124624588825 0 0  2.921875 0.7390625 0  0.3039821964873107 2.365 0  0.2656249999999999 2.2171875 0  1.519910982436554 2.365 0  2.730089017563446 0 0  3.267848714624348 1.643786705677805 0  3.962128140614412 0.4810864575242905 0  6.088735565830333 6.566440677959418 0  2.87287907903055 1.226769242480236 0  5.997734206003997 1.422062058743168 0  2.335585913229898 0.2848909091867997 0  1.915727811171581 2.080394075538645 0  5.3 0.295625 0  5.256721366499521 0.2924399092246666 0  0 1.478125 0  0 0.8868750000000001 0  4.95 2.069375 0  4.993278633500479 2.072560090775334 0  0 2.069375 0  4.25 0.2924052190099349 0  3.841572739148465 1.037556133343355 0  6.247685367118326 6.002851795106343 0  5.596179388183639 5.390271738108119 0  0.361226814135335 0.633338030484755 0  0.390270021626804 1.200123785848559 0  6.341029012534215 4.765551947817491 0  5.555765280690617 2.58528286847223 0  6.818326003308544 6.060675919673228 0  5.628125 6.665 0  5.3 6.581138891568616 0  6.721875 4.665 0  7.05 4.748861108431384 0  2.729013460599041 1.564984855461338 0  1.766005998581615 0.3591878959166037 0  6.83125 7.265 0  5.527503434040016 4.065 0  5.51875 4.0025 0  6.414708980099403 5.79017371349605 0  5.555816552627036 1.629876120346811 0  6.405574324324323 3.185945945945946 0  6.405574324324323 2.585945945945946 0  5.944425675675676 3.344054054054054 0  5.95625 2.965 0  5.944425675675676 2.744054054054054 0  6.83125 2.965 0  6.843074324324323 3.035945945945945 0  0.9539220190930711 1.522188675922875 0  5.875323973896693 0.2985022980005431 0  6.284375 5.465 0  1.28446357176077 0.6008092986991798 0  2.93210457621998 2.068557687752316 0  7.05 2.141507669022687 0  6.420010302120049 4.065 0  6.40216663645357 3.750095246727552 0  6.39375 3.565 0  5.846875 6.265 0  0.2127682824147084 1.9215625 0  0.607699940173331 0.8431476678143333 0  1.270397973338397 0.2479363044321548 0  5.826861590721315 1.225363214864182 0  5.895744270062652 4.959765766084354 0  1.590874624588825 0 0  5.553621165488657 0 0  3.113660982436554 2.365 0  1.050077073521563 0.7053514850398296 0  5.
[...]
<PointData  Vectors="Displacement"> 
<DataArray  type="Float64"  Name="Displacement"  NumberOfComponents="3" format="ascii">2.7973519249970116e-02 2.0407384999997533e-02 0.0000000000000000e+00  1.1649578624994437e-02 2.0204066250005575e-02 0.0000000000000000e+00  3.7210058624971891e-02 3.6108866250012250e-02 0.0000000000000000e+00  8.7578392499954513e-03 1.1418584999998057e-02 0.0000000000000000e+00  8.9600036249963232e-03 1.7718941250004540e-02 0.0000000000000000e+00  6.7358892499968922e-03 1.0014084999998818e-02 0.0000000000000000e+00  8.1794913749957607e-03 9.9602662499981617e-03 0.0000000000000000e+00  6.2910663749968874e-03 8.7351412499981889e-03 0.0000000000000000e+00  6.1978136249980645e-03 1.4736791250003451e-02 0.0000000000000000e+00  4.6593492499983884e-03 8.3286849999992096e-03 0.0000000000000000e+00  4.3516563749983958e-03 7.2649912499987077e-03 0.0000000000000000e+00  5.8462434999969120e-03 7.5435399999977748e-03 0.0000000000000000e+00  4.0439634999985472e-03 6.2739399999985346e-03 0.0000000000000000e+00  3.9432236249992607e-03 1.1754641250002440e-02 0.0000000000000000e+00  2.9644092499991463e-03 6.6432849999994818e-03 0.0000000000000000e+00  2.7686463749990306e-03 5.7948412499991084e-03 0.0000000000000000e+00  2.5728834999990320e-03 5.0043399999990541e-03 0.0000000000000000e+00  3.7362706249987531e-03 5.3555312499990928e-03 0.0000000000000000e+00  2.3771206249991838e-03 4.2717812499991166e-03 0.0000000000000000e+00  2.6608149839815754e-16 0.0000000000000000e+00 0.0000000000000000e+00  3.4882792576725703e-16 0.0000000000000000e+00 0.0000000000000000e+00  2.9310068809315965e-16 0.0000000000000000e+00 0.0000000000000000e+00  2.1979771861143563e-16 0.0000000000000000e+00 0.0000000000000000e+00  1.4407160459610319e-16 0.0000000000000000e+00 0.0000000000000000e+00  0.0000000000000000e+00 4.4572992459367106e-17 0.0000000000000000e+00  0.0000000000000000e+00 0.0000000000000000e+00 0.0000000000000000e+00  1.9816948937484570e-02 2.1600999062503231e-02 0.0000000000000000e+00  8.9872339374958508e-03 1.4546833437501658e-02 0.0000000000000000e+00  7.4590403124960717e-03 1.0020335937498353e-02 0.0000000000000000e+00  6.5826889374975594e-03 1.2449649062501070e-02 0.0000000000000000e+00  3.6398903124987645e-03 6.9997890624991007e-03 0.0000000000000000e+00  3.3913124374987547e-03 6.0763665624988554e-03 0.0000000000000000e+00  5.4633653124977130e-03 8.5757265624987027e-03 0.0000000000000000e+00  5.0902574374976466e-03 7.4444040624982565e-03 0.0000000000000000e+00  4.3856239374988936e-03 1.0161811562500773e-02 0.0000000000000000e+00  7.1663195312509254e-04 3.1059101562497826e-03 0.0000000000000000e+00  6.6769123437500572e-04 2.6961739062496492e-03 0.0000000000000000e+00  6.1875051562493082e-04 2.3154089062495842e-03 0.0000000000000000e+00  3.1427345624987077e-03 5.2182365624989600e-03 0.0000000000000000e+00  8.6345410937523287e-04 4.5089464062504575e-03 0.0000000000000000e+00  2.9714007812487483e-04 5.3397265624991993e-04 0.0000000000000000e+00  2.4446550975691411e-02 2.9267961381159845e-02 0.0000000000000000e+00  1.5692511140201350e-02 1.5284809390439864e-02 0.0000000000000000e+00  1.0261566422934708e-02 1.5676376000242111e-02 0.0000000000000000e+00  7.8479464374967018e-03 1.3593567812501393e-02 0.0000000000000000e+00  7.9384293254033348e-03 1.0871290368113431e-02 0.0000000000000000e+00  6.9975019476917616e-03 9.2125384275617301e-03 0.0000000000000000e+00  5.4285814374982547e-03 1.1305730312500919e-02 0.0000000000000000e+00  3.8990146959275510e-03 7.6188818791584892e-03 0.0000000000000000e+00  3.5156013749987709e-03 6.5299162499989367e-03 0.0000000000000000e+00  3.2670234999987329e-03 5.6391399999988880e-03 0.0000000000000000e+00  5.2768113749976772e-03 8.0000662499985081e-03 0.0000000000000000e+00  5.8148445553586918e-03 9.3042818791581449e-03 0.0000000000000000e+00  4.7626200550828050e-03 6.8086297129560198e-03 0.0000000000000000e+00  3.4538164374993581e-03 9.0178928125007832e-03 0.0000000000000000e+00  7.4110231250013622e-04 3.3216424999998832e-03 0.0000000000000000e+00  6.9216159375004355e-04 2.8974206249997077e-03 0.0000000000000000e+00  6.4322087499996627e-04 2.5021699999996060e-03 0.0000000000000000e+00  5.8140552230878792e-04 2.1126277073463514e-03 0.0000000000000000e+00  2.9122254508884720e-03 4.7282005761003507e-03 0.0000000000000000e+00  1.5255715312500252e-03 7.3113902178412226e-03 0.0000000000000000e+00  1.3601926567581228e-03 1.3986447406248914e-03 0.0000000000000000e+00  -1.0582490410065713e-16 0.0000000000000000e+00 0.0000000000000000e+00  1.5650613781240729e-02 2.1272288515630039e-02 0.0000000000000000e+00  9.0030515518020153e-03 1.6195697160322164e-02 0.0000000000000000e+00  6.6953019534804334e-03 1.1175796646328501e-02 0.0000000000000000e+00  8.9066654999956658e-03 1.2970049062499916e-02 0.0000000000000000e+00  6.4057264556636852e-03 1.3682276191625724e-02 0.0000000000000000e+00  4.5539048954102010e-03 9.2169108104081920e-03 0.0000000000000000e+00  4.0404066464573033e-03 7.1613006886041249e-03 0.0000000000000000e+00  3.0332847183261974e-03 5.9270818104415635e-03 0.0000000000000000e+00  3.7590178033227056e-03 6.1985558807735866e-03 0.0000000000000000e+00  2.8154844890027680e-03 5.1064707152670618e-03 0.0000000000000000e+00  5.9312913170222687e-03 8.6766883430918554e-03 0.0000000000000000e+00  4.6679115957674227e-03 7.3526796481809074e-03 0.0000000000000000e+00  4.1704922354312227e-03 1.1039968058407422e-02 0.0000000000000000e+00  1.6070282482542467e-03 5.6292256821108364e-03 0.0000000000000000e+00  1.7834374398350219e-04 1.5897024768441719e-03 0.0000000000000000e+00  1.5959982990002644e-03 4.5156146839195350e-03 0.0000000000000000e+00  1.6637078991240870e-04 1.3834206338780314e-03 0.0000000000000000e+00  1.4850893238734489e-03 3.9098237495866989e-03 0.0000000000000000e+00  1.5439783584130190e-04 1.1914683464639318e-03 0.0000000000000000e+00  1.1142752929677820e-04 6.0071923828108930e-04 0.0000000000000000e+00  1.7461923394094189e-02 2.4736013815582419e-02 0.0000000000000000e+00  8.4039750312464665e-03 1.5588018203127964e-02 0.0000000000000000e+00  1.0955572523964478e-02 1.7868516870279270e-02 0.0000000000000000e+00  7.2919178437469345e-03 1.1735590078124880e-02 0.0000000000000000e+00  9.5097028364650449e-03 1.3463322296995093e-02 0.0000000000000000e+00  5.8131975312481704e-03 1.2964508828127155e-02 0.0000000000000000e+00  5.0439653437483840e-03 9.7604557031249518e-03 0.0000000000000000e+00  3.9224913749986009e-03 6.8974537499988204e-03 0.0000000000000000e+00  4.5055028124983861e-03 7.7877578124989537e-03 0.0000000000000000e+00  3.1309863749989244e-03 6.1623787499990503e-03 0.0000000000000000e+00  2.6847479999990089e-03 5.4489599999990816e-03 0.0000000000000000e+00  3.6451434999986089e-03 5.9565399999987820e-03 0.0000000000000000e+00  4.1978099374984394e-03 6.7603853124985902e-03 0.0000000000000000e+00  2.9096034999988815e-03 5.3217399999989801e-03 0.0000000000000000e+00  2.4889851249990705e-03 4.6832912499990848e-03 0.0000000000000000e+00  5.7728013749972652e-03 8.3676037499983563e-03 0.0000000000000000e+00  6.5134778124968729e-03 9.3636953124985167e-03 0.0000000000000000e+00  4.8030963749981200e-03 7.6325287499986556e-03 0.0000000000000000e+00  3.6985200312493346e-03 1.0340999453126578e-02 0.0000000000000000e+00  1.9690858124996255e-03 5.4143474999996501e-03 0.0000000000000000e+00  1.8527557812530383e-04 1.6608212499999607e-03 0.0000000000000000e+00  1.7304039843774193e-04 1.4487103124998805e-03 0.0000000000000000e+00  1.5573635859371542e-03 4.3461309374994333e-03 0.0000000000000000e+00  1.6080521875016585e-04 1.2510849999998323e-03 0.0000000000000000e+00  1.4472469687495865e-03 3.7532549999993413e-03 0.0000000000000000e+00  1.4535138057730483e-04 1.0563138536731924e-03 0.0000000000000000e+00  -7.6253655120490505e-17 0.0000000000000000e+00 0.0000000000000000e+00  1.3618933703117746e-02 2.0836358535161734e-02 0.0000000000000000e+00  5.0609201349324177e-03 8.4644584098068285e-03 0.0000000000000000e+00  7.1505377195337748e-03 1.0026047952574696e-02 0.0000000000000000e+00  2.2537994815668982e-03 6.2243967180662567e-03 0.0000000000000000e+00  1.2815532499999350e-03 4.3679949999997853e-03 0.0000000000000000e+00  1.3646595058589260e-03 3.3371166210930804e-03 0.0000000000000000e+00  3.2499696044935517e-05 4.0882281494129894e-04 0.0000000000000000e+00  1.4409215657982120e-02 2.2470040032793962e-02 0.0000000000000000e+00  5.2255879999980786e-03 8.8202599999991568e-03 0.0000000000000000e+00  7.4134279999963212e-03 1.0505659999998701e-02 0.0000000000000000e+00  3.2091128437492624e-03 7.7853213281250866e-03 0.0000000000000000e+00  1.1148648831560306e-03 3.8239000144893840e-03 0.0000000000000000e+00  1.3274391283415012e-03 3.1922044786727309e-03 0.0000000000000000e+00  1.1445826309471722e-17 0.0000000000000000e+00 0.0000000000000000e+00  1.0815024902342627e-03 3.6217757812495996e-03 0.0000000000000000e+00  1.0380650976797921e-03 3.3152114569852480e-03 0.0000000000000000e+00  1.0050326171872970e-03 3.1277124999994957e-03 0.0000000000000000e+00  9.5723894653296779e-04 2.8373129028314912e-03 0.0000000000000000e+00  9.1646633899703715e-04 2.6524160930095175e-03 0.0000000000000000e+00  3.3428258789058206e-04 2.0023974609375609e-04 0.0000000000000000e+00  0.0000000000000000e+00 2.1078225625726474e-17 0.0000000000000000e+00  6.8009632837905836e-04 3.4966118515625711e-04 0.0000000000000000e+00  -6.0949373382623629e-17 0.0000000000000000e+00 0.0000000000000000e+00  1.8686566408788441e-03 2.6397669186331014e-03 0.0000000000000000e+00  2.1392369882585926e-02 1.7846097195218482e-02 0.0000000000000000e+00  2.3980584093727681e-02 2.1282072890625704e-02 0.0000000000000000e+00  9.3424193147842547e-05 1.3539348832544099e-04 0.0000000000000000e+00  6.7559780006828149e-04 1.3492971064892033e-03 0.0000000000000000e+00  2.3115750195343092e-04 2.5852498632816167e-03 0.0000000000000000e+00  3.7795398369792190e-16 0.0000000000000000e+00 0.0000000000000000e+00  3.8139288281270243e-04 3.6556951089205809e-03 0.0000000000000000e+00  3.2591788937471153e-02 2.7701899062505256e-02 0.0000000000000000e+00  3.0494417608243070e-02 3.2688413815586237e-02 0.0000000000000000e+00  1.0201444925685762e-03 7.8673766660152932e-04 0.0000000000000000e+00  3.4821102905265380e-04 3.7544952392575307e-04 0.0000000000000000e+00  0.0000000000000000e+00 1.0982702061764837e-17 0.0000000000000000e+00  -1.1073261811851052e-16 0.0000000000000000e+00 0.0000000000000000e+00  2.0892661743149670e-04 6.2574920654282732e-04 0.0000000000000000e+00  1.1974167802464887e-02 1.3351697195218818e-02 0.0000000000000000e+00  2.8071089951721032e-02 2.7027631045854452e-02 0.0000000000000000e+00  1.3171276190975493e-02 1.6722466681077408e-02 0.0000000000000000e+00  1.8102725905516198e-04 1.9558311775899452e-03 0.0000000000000000e+00  4.6968535946168049e-04 1.4643088336607482e-03 0.0000000000000000e+00  1.0033220734692526e-04 5.5634402705043347e-05 0.0000000000000000e+00  0.0000000000000000e+00 2.9290109341340928e-17 0.0000000000000000e+00  2.2749787231443448e-04 5.8403259277371935e-05 0.0000000000000000e+00  3.4004816418953287e-04 8.7415296289092452e-05 0.0000000000000000e+00  1.9837548810413956e-03 7.2901999343529924e-03 0.0000000000000000e+00  1.1503852979118433e-03 2.3269660490485458e-03 0.0000000000000000e+00  2.1512052720705460e-05 2.3718590157271910e-05 0.0000000000000000e+00  7.2991588485745145e-04 1.0152136327327658e-03 0.0000000000000000e+00  7.2109072123388571e-05 2.1073208449252080e-04 0.0000000000000000e+00  1.7723618859363043e-02 2.1523340566410514e-02 0.0000000000000000e+00  2.0807701833330604e-02 2.7001987598371264e-02 0.0000000000000000e+00  2.1909604015606019e-02 2.1516748378908202e-02 0.0000000000000000e+00  1.8432279183268768e-02 1.6565453292829092e-02 0.0000000000000000e+00  -8.7022532448418426e-17 0.0000000000000000e+00 0.0000000000000000e+00  1.6144246488185381e-03 1.9703443104592843e-03 0.0000000000000000e+00  3.8967746309774014e-16 0.0000000000000000e+00 0.0000000000000000e+00  1.4714186625013483e-02 1.6347735973965109e-02 0.0000000000000000e+00  2.4250924492902642e-02 2.5995270899713367e-02 0.0000000000000000e+00  5.0289865795926085e-04 3.6255484643559089e-03 0.0000000000000000e+00  8.5813398632826566e-04 5.4835426633808122e-03 0.0000000000000000e+00  5.9021239843726214e-04 4.5523054419403168e-04 0.0000000000000000e+00  4.2470219323155454e-05 2.9397301311307296e-04 0.0000000000000000e+00  3.4478703919248817e-04 1.0224846082713551e-03 0.0000000000000000e+00  2.0166471955530253e-05 5.0404523375057425e-05 0.0000000000000000e+00  1.9517080908610228e-04 1.6811882417851781e-04 0.0000000000000000e+00  1.1843082206246182e-03 1.9423688816870245e-03 0.0000000000000000e+00  7.7818846545258663e-05 3.0768929795809476e-04 0.0000000000000000e+00  6.2016783481531044e-04 6.7816004342819293e-04 0.0000000000000000e+00  1.1604961901289972e-03 5.7934540702444786e-03 0.0000000000000000e+00  3.4900923781221678e-02 3.1766326015633395e-02 0.0000000000000000e+00  3.3768766318585365e-02 3.4398640032799264e-02 0.0000000000000000e+00  2.6008889171848869e-02 2.0908456972655465e-02 0.0000000000000000e+00  2.4572783238153057e-02 1.9126741097607869e-02 0.0000000000000000e+00  2.8076869649330802e-02 2.4524645142835342e-02 0.0000000000000000e+00  5.5171969860352637e-04 3.2280725957763122e-03 0.0000000000000000e+00  2.1228886329391237e-03 3.4069125651464689e-03 0.0000000000000000e+00  -3.1363894133060201e-17 0.0000000000000000e+00 0.0000000000000000e+00  1.8345630996041536e-02 1.8470193990078713e-02 0.0000000000000000e+00  1.2806836872261139e-02 1.8247919130025877e-02 0.0000000000000000e+00  2.5935419000687097e-03 9.5330157339217608e-03 0.0000000000000000e+00  4.5571476434616380e-04 8.8897810676181370e-04 0.0000000000000000e+00  1.8773197451471430e-04 3.0458333212941987e-04 0.0000000000000000e+00  2.1454741813540826e-04 1.0918069522591633e-03 0.0000000000000000e+00  2.9653993686267996e-05 1.1420993665035296e-05 0.0000000000000000e+00  3.0282654093720614e-02 2.3915585390626284e-02 0.0000000000000000e+00  7.0577919382735292e-05 1.5424255669966603e-05 0.0000000000000000e+00  2.1204050612938889e-02 2.4944438542951444e-02 0.0000000000000000e+00  1.0303251678071496e-02 1.2385141097608321e-02 0.0000000000000000e+00  1.8198985956404271e-04 7.8434426443903222e-05 0.0000000000000000e+00  2.4647311788372648e-03 7.2167914692278200e-03 0.0000000000000000e+00  2.3072397210225268e-05 8.7525239823709394e-05 0.0000000000000000e+00  1.1129684664426260e-03 1.4466039661923473e-03 0.0000000000000000e+00  6.7945178754737426e-05 1.0966013297372492e-03 0.0000000000000000e+00  1.6908740067844083e-02 1.9106698202493898e-02 0.0000000000000000e+00  1.1901685746633622e-03 1.0708373795409629e-03 0.0000000000000000e+00  1.9403898824256357e-05 1.2812183849654658e-04 0.0000000000000000e+00  1.5755058137796427e-03 3.1000960044290618e-03 0.0000000000000000e+00  6.7967442787398474e-04 2.0129117583632629e-03 0.0000000000000000e+00  0.0000000000000000e+00 5.9853735246687016e-18 0.0000000000000000e+00  5.1007224628429415e-04 1.9668441665041234e-04 0.0000000000000000e+00  2.9423831954952990e-04 1.2202109527589834e-04 0.0000000000000000e+00  -3.9447001941571444e-17 0.0000000000000000e+00 0.0000000000000000e+00  6.7901150665235265e-05 5.2875807952866452e-04 0.0000000000000000e+00  9.5348220703372715e-05 1.8278475544603126e-03 0.0000000000000000e+00  5.9701122314749844e-05 1.3795629321291109e-03 0.0000000000000000e+00  3.3493504663007716e-16 0.0000000000000000e+00 0.0000000000000000e+00  3.1627625557910238e-02 3.0628058239818543e-02 0.0000000000000000e+00  1.1207079672041024e-02 1.4337890947519843e-02 0.0000000000000000e+00  1.8309062918717433e-02 2.3775407983863153e-02 0.0000000000000000e+00  2.0977690541784780e-02 1.9149076323735238e-02 0.0000000000000000e+00  1.5372078069629079e-02 1.8972946728894945e-02 0.0000000000000000e+00  2.4742682910393454e-02 2.4477820177041802e-02 0.0000000000000000e+00  2.7706625697233242e-02 2.8886611872036300e-02 0.0000000000000000e+00  1.0508913309618265e-03 4.3066861369697867e-03 0.0000000000000000e+00  4.3956190369515305e-06 4.5056394215808006e-06 0.0000000000000000e+00  6.6753365430816895e-04 4.5021966391928601e-03 0.0000000000000000e+00  9.0332315788606071e-04 9.8680882254548294e-04 0.0000000000000000e+00  1.3770587623174830e-02 1.4318253292829264e-02 0.0000000000000000e+00  2.7387012493945439e-02 3.0978187598373199e-02 0.0000000000000000e+00  1.1576077692473839e-02 1.6047741084593892e-02 0.0000000000000000e+00  6.8419394626454964e-05 6.7014238678123536e-05 0.0000000000000000e+00  2.2685966267559541e-04 9.7220926606657657e-04 0.0000000000000000e+00  5.9175911396524422e-04 1.4556280960845640e-03 0.0000000000000000e+00  2.8102119432557985e-03 8.5704379342805836e-03 0.0000000000000000e+00  2.6057835219332371e-03 8.8763031269642467e-03 0.0000000000000000e+00  4.5741714203741850e-04 3.1906839611343641e-03 0.0000000000000000e+00  3.0480932837936223e-02 2.7615636052727544e-02 0.0000000000000000e+00  1.7875223254589447e-03 7.4226015651012332e-03 0.0000000000000000e+00  5.0239455125021374e-05 1.1741631903840520e-03 0.0000000000000000e+00  2.0917109475400672e-04 2.2782857921400815e-03 0.0000000000000000e+00  3.9004745425539982e-16 0.0000000000000000e+00 0.0000000000000000e+00  1.2832387026698649e-02 1.5187749451048702e-02 0.0000000000000000e+00  2.5256731421043077e-04 2.1372740844944832e-03 0.0000000000000000e+00  9.3197307747751442e-04 1.4866049614480530e-03 0.0000000000000000e+00  4.0201304687705028e-05 6.2554249999992166e-04 0.0000000000000000e+00  4.1962821114859668e-05 7.0407582709015252e-04 0.0000000000000000e+00  3.8969582597025994e-05 6.0721373540744620e-04 0.0000000000000000e+00  4.3260099609655704e-05 7.2435515624994353e-04 0.0000000000000000e+00  1.6006091204776602e-03 2.6965954927667640e-03 0.0000000000000000e+00  7.7597421833423212e-04 1.9186542936823015e-03 0.0000000000000000e+00  1.0830057084470618e-03 2.5610883138836157e-03 0.0000000000000000e+00  6.9714121236081077e-06 1.8526517716679536e-05 0.0000000000000000e+00  1.9006262563097908e-03 6.6095625186971228e-03 0.0000000000000000e+00  1.3499475668665264e-03 5.8471317754738199e-03 0.0000000000000000e+00  2.0857950705569972e-04 2.4682925787851970e-04 0.0000000000000000e+00  4.8060920657933334e-04 7.6316258690434572e-04 0.0000000000000000e+00  1.6182408585136630e-04 3.5467610117971126e-04 0.0000000000000000e+00  7.6469150392399573e-05 1.6501065781088331e-04 0.0000000000000000e+00  1.3404954730855619e-04 3.2175095465737010e-05 0.0000000000000000e+00  3.2905942245472705e-04 4.5992566680902675e-04 0.0000000000000000e+00  2.5593510635362013e-04 5.9133300018299380e-04 0.0000000000000000e+00  4.1687005078149626e-04 2.4912318749999271e-03 0.0000000000000000e+00  4.0366855727756522e-04 2.3612945100762259e-03 0.0000000000000000e+00  3.8934089648454633e-04 2.1730654687497995e-03 0.0000000000000000e+00  3.7633678232919276e-04 2.0523604982554196e-03 0.0000000000000000e+00  3.6181174218758978e-04 1.8766274999997218e-03 0.0000000000000000e+00  3.4900500738081275e-04 1.7650768892106795e-03 0.0000000000000000e+00  3.2704060629875823e-04 1.5844707805097759e-03 0.0000000000000000e+00  5.5536982221689120e-05 1.1340257030332910e-03 0.0000000000000000e+00  8.6819893281213558e-03 1.6636420644534983e-02 0.0000000000000000e+00  7.5154586249971912e-03 1.6227866250003897e-02 0.0000000000000000e+00  8.9882217511677402e-03 1.6958572464556482e-02 0.0000000000000000e+00  5.0070686249987255e-03 1.3245716250002907e-02 0.0000000000000000e+00  5.1039489111859868e-04 3.0248235252195165e-04 0.0000000000000000e+00  2.4286114669457426e-05 2.8025954893889563e-04 0.0000000000000000e+00  1.8387180974114847e-03 3.8151595678703235e-03 0.0000000000000000e+00  1.9698639296867647e-03 4.3787974999991664e-03 0.0000000000000000e+00  1.8143238903422342e-03 3.7319928643359335e-03 0.0000000000000000e+00  1.9945228118287096e-03 4.4684471139897026e-03 0.0000000000000000e+00  3.5111278762811339e-04 2.8680171966551814e-04 0.0000000000000000e+00  7.4548220352948940e-17 0.0000000000000000e+00 0.00000000000