<?xml version="1.0"?>
<VTKFile type="UnstructuredGrid"  version="0.1"  >
<UnstructuredGrid>
<Piece  NumberOfPoints="1122" NumberOfCells="2077">
<Points>
<DataArray  type="Float64"  NumberOfComponents="3"  format="ascii">5.3 7.265 0  7.05 4.065 0  7.05 7.265 0  5.3 4.065 0  7.05 3.565 0  5.3 3.565 0  4.95 4.065 0  4.95 3.565 0  7.05 2.965 0  5.3 2.965 0  4.95 2.965 0  4.6 3.565 0  4.6 2.965 0  7.05 2.365 0  5.3 2.365 0  4.95 2.365 0  4.6 2.365 0  4.25 2.965 0  4.25 2.365 0  7.05 0 0  5.3 0 0  4.95 0 0  4.6 0 0  4.25 0 0  0 2.365 0  0 0 0  6.175 5.665 0  6.175 3.815 0  5.125 3.815 0  6.175 3.265 0  5.125 2.665 0  4.775 2.665 0  5.125 3.265 0  4.775 3.265 0  6.175 2.665 0  5.125 1.1825 0  4.775 1.1825 0  4.425 1.1825 0  4.425 2.665 0  6.175 1.1825 0  2.125 1.1825 0  7.05 5.888629622483688 0  5.3 5.441370377516312 0  6.210013736160064 4.065 0  6.175 3.565 0  5.3 3.870163890393343 0  4.95 3.759836109606658 0  6.175 2.965 0  5.3 2.712311099736245 0  4.95 2.665 0  4.6 2.665 0  4.95 3.265 0  5.3 3.312311099736244 0  4.6 3.217688900263754 0  6.175 2.365 0  5.3 1.1825 0  4.95 1.1825 0  4.6 1.1825 0  4.25 1.16962087603974 0  4.25 2.617688900263755 0  7.05 1.471030676090747 0  2.431857571898486 2.365 0  1.818142428101514 0 0  6.6125 4.865 0  6.629333272907139 3.685190493455103 0  5.713851351351352 3.423108108108108 0  5.7375 3.94 0  6.636148648648648 3.106891891891892 0  5.713851351351352 2.823108108108108 0  5.025580653828612 2.835433164865235 0  4.874419346171388 2.494566835134765 0  4.675580653828613 2.835433164865235 0  4.524419346171387 2.494566835134765 0  5.025580653828612 3.435433164865235 0  4.874419346171388 3.094566835134765 0  6.636148648648648 2.506891891891892 0  5.820468412007996 1.661624117486337 0  5.213442732999042 0.5848798184493331 0  5.036557267000958 1.780120181550667 0  4.863442732999042 0.5848798184493331 0  4.686557267000959 1.780120181550667 0  4.513442732999041 0.5848798184493331 0  3.1875 0.5912499999999999 0  7.05 4.976814811241844 0  6.6125 3.565 0  6.630006868080033 4.065 0  5.7375 3.565 0  5.755006868080033 4.065 0  6.6125 2.965 0  5.7375 2.965 0  4.95 2.815 0  5.125 2.965 0  4.95 2.515 0  4.800000000000001 2.365 0  4.6 2.815 0  4.775 2.965 0  4.6 2.515 0  4.449999999999999 2.365 0  4.95 3.415 0  5.125 3.565 0  4.95 3.114999999999999 0  6.6125 2.365 0  5.3 1.9275 0  5.3 0.5912500000000001 0  4.95 0.5912500000000001 0  4.95 1.77375 0  4.6 0.5912500000000001 0  4.6 1.77375 0  4.25 0.5848104380198699 0  3.034071214050757 0 0  6.83125 4.465 0  5.211822570533285 3.116161307657225 0  5.199644089736418 3.708365586090832 0  5.560234206003997 2.013312058743169 0  5.3 1.555 0  4.3375 1.77375 0  3.71875 0.295625 0  7.05 4.520907405620923 0  5.3 3.139999999999999 0  5.3 3.739999999999999 0  5.7375 2.365 0  5.080778633500479 1.481310090775334 0  4.25 1.76731043801987 0  3.642035607025378 0 0  4.95 1.478125 0  4.73077863350048 1.481310090775334 0  4.6 1.478125 0  4.38125 1.478125 0  4.25 1.468465657029805 0  1.0625 1.77375 0  0 1.1825 0  1.215928785949243 2.365 0  0.9090712140507571 0 0  3.340928785949243 2.365 0  5.3 6.353185188758156 0  5.7375 6.465 0  1.251926214046421 0.8638539258762323 0  2.998073785953579 1.501146074123768 0  6.6125 0.5912500000000001 0  6.314484661954626 0 0  7.05 0.7355153380453735 0  6.175 7.265 0  7.05 6.576814811241844 0  1.823893178923864 2.365 0  1.59375 1.478125 0  0 0.5912500000000001 0  2.426106821076136 0 0  2.65625 0.8868750000000001 0  5.3 4.753185188758156 0  6.384382461419411 6.63086506016126 0  5.965647764605047 4.698780141966616 0  5.95625 0.5512968727055005 0  3.573985453476257 1.146376094877751 0  0.6756920837505003 1.21855677338705 0  0 1.77375 0  0.5312499999999999 2.069375 0  0.6079643929746215 2.365 0  6.446593558696915 1.754199000482114 0  3.610596224419451 1.784975253492358 0  0.6394873570286449 0.5799959292452963 0  2.417022476128119 1.737785075476752 0  1.83297752387188 0.6272149245232482 0  6.39375 5.265000000000001 0  7.05 5.432722216862766 0  5.95625 6.065 0  5.3 5.897277783137234 0  1.363606821076136 0 0  2.886393178923864 2.365 0  5.807242330977314 0 0  5.66317075542392 5.097277783137233 0  6.531608295550142 6.093321366176391 0  6.39375 0.8868750000000001 0  7.05 1.10327300706806 0  1.519910982436554 1.97058461431516 0  2.730089017563446 0.3944153856848401 0  3.118321402239236 1.051513924837064 0  1.080031360230293 0.4321124510033665 0  1.131373342792352 1.313422525825128 0  3.170050834191505 1.932854926851105 0  2.299923182630591 0.5816821397526466 0  1.950076817369409 1.783317860247354 0  6.613181962233742 1.324697214951463 0  6.6125 7.265 0  7.05 6.920907405620921 0  5.51875 6.865 0  5.3 6.809092594379077 0  5.983458173428153 6.850120530156478 0  5.7375 0.9806135633003248 0  3.795464392974622 2.365 0  0.4545356070253785 0 0  5.707817604026098 5.669324080326772 0  6.382560485385842 4.479437374820383 0  7.05 1.918015338045373 0  2.588389785493746 1.326880192167154 0  1.703300758037187 1.049840817825812 0  3.81583399465085 0.749837075035683 0  0.3530001285220923 0.9165457830971103 0  5.7375 7.265 0  0.3230327290960819 1.478125 0  6.645222772803423 5.648779777756588 0  5.3 4.409092594379079 0  0.6966084743942642 1.616326964752643 0  5.95625 2.0342218763767 0  1.49184819442877 0.3932638652425394 0  2.659125375411175 2.045841681839123 0  5.614524271201718 0.3478746969228768 0  5.999107992102964 5.308994605056308 0  2.127875375411175 2.365 0  2.037600823622477 0.3085922016883884 0  3.93649851739085 2.000575559990484 0  3.906455196942886 1.319043266534772 0  0 0.295625 0  0.9119465894619322 2.365 0  0.7968749999999998 1.9215625 0  3.338053410538068 0 0  3.453125 0.4434374999999999 0  7.05 0.3677576690226868 0  6.83125 0.295625 0  6.682242330977314 0 0  6.668949774591622 6.886595444085661 0  5.68188834913787 4.441195406600733 0  6.758701711409929 5.204768514052305 0  5.59129828859007 6.125231485947695 0  6.163759209134029 4.993941590579597 0  6.233034970219983 6.300479647380988 0  6.703009859999504 6.429199314158878 0  5.609311330585206 1.36875 0  0.3587822425707757 0.3500213638980786 0  6.721382088515962 0.9965688100980222 0  2.209060623332511 2.022170427178749 0  5.3 5.097277783137233 0  7.05 6.232722216862767 0  6.059295437662608 4.370887739173418 0  0.8690637789301248 0.8872863262959064 0  3.466735784094473 0.8089436482612071 0  3.295985566969465 1.339922954220738 0  6.39375 2.096484771253884 0  6.711845829197576 1.970371788042478 0  6.060173353037894 0.8687877612331139 0  6.301258297484685 6.955053672984521 0  6.754921001691115 1.626730465232963 0  6.49836349646597 0.2780484381883498 0  6.284029928285962 0.5769414109938407 0  6.06086349646597 0 0  5.643646453505415 4.768412579276713 0  5.655197341664164 0.6682895817033545 0  2.872957907069126 1.801096788690002 0  4.6 0.295625 0  4.906721366499522 0.2924399092246666 0  4.55672136649952 0.2924399092246666 0  4.95 0.295625 0  3.568196589461933 2.1179624530524 0  3.620056836640555 1.464083854703579 0  3.927107481851438 1.660653323618258 0  0.7896275243076972 0.2971318722880981 0  6.12561317803929 1.761463214735561 0  6.326880341955087 1.460708780209755 0  1.429466162327612 1.207949778943681 0  2.296927843562433 1.446513085688053 0  1.980950224264427 0.9038259360937273 0  1.52702416133256 0.7076527164671081 0  0.4258514322303463 1.77420426839212 0  1.859375 1.3303125 0  2.390625 1.0346875 0  5.3 0.8868750000000001 0  5.169221366499521 0.8836899092246666 0  4.95 0.8868750000000001 0  4.819221366499521 0.8836899092246666 0  4.6 0.8868750000000001 0  4.46922136649952 0.8836899092246666 0  4.25 0.8772156570298049 0  6.140746550782823 0.3007326298726944 0  6.83125 3.565 0  7.05 3.265 0  6.83966663645357 3.625095246727552 0  7.05 2.665 0  1.214780807536237 2.049765590706595 0  3.186062312294412 0.276090769979388 0  4.29375 2.069375 0  4.6 2.069375 0  4.25 2.066155219009935 0  4.643278633500479 2.072560090775334 0  1.328125 1.6259375 0  3.946017803512689 0 0  3.984375 0.1478125 0  2.122124624588825 0 0  2.921875 0.7390625 0  0.3039821964873107 2.365 0  0.2656249999999999 2.2171875 0  1.519910982436554 2.365 0  2.730089017563446 0 0  3.267848714624348 1.643786705677805 0  3.962128140614412 0.4810864575242905 0  6.088735565830333 6.566440677959418 0  2.87287907903055 1.226769242480236 0  5.997734206003997 1.422062058743168 0  2.335585913229898 0.2848909091867997 0  1.915727811171581 2.080394075538645 0  5.3 0.295625 0  5.256721366499521 0.2924399092246666 0  0 1.478125 0  0 0.8868750000000001 0  4.95 2.069375 0  4.993278633500479 2.072560090775334 0  0 2.069375 0  4.25 0.2924052190099349 0  3.841572739148465 1.037556133343355 0  6.247685367118326 6.002851795106343 0  5.596179388183639 5.390271738108119 0  0.361226814135335 0.633338030484755 0  0.390270021626804 1.200123785848559 0  6.341029012534215 4.765551947817491 0  5.555765280690617 2.58528286847223 0  6.818326003308544 6.060675919673228 0  5.628125 6.665 0  5.3 6.581138891568616 0  6.721875 4.665 0  7.05 4.748861108431384 0  2.729013460599041 1.564984855461338 0  1.766005998581615 0.3591878959166037 0  6.83125 7.265 0  5.527503434040016 4.065 0  5.51875 4.0025 0  6.414708980099403 5.79017371349605 0  5.555816552627036 1.629876120346811 0  6.405574324324323 3.185945945945946 0  6.405574324324323 2.585945945945946 0  5.944425675675676 3.344054054054054 0  5.95625 2.965 0  5.944425675675676 2.744054054054054 0  6.83125 2.965 0  6.843074324324323 3.035945945945945 0  0.9539220190930711 1.522188675922875 0  5.875323973896693 0.2985022980005431 0  6.284375 5.465 0  1.28446357176077 0.6008092986991798 0  2.93210457621998 2.068557687752316 0  7.05 2.141507669022687 0  6.420010302120049 4.065 0  6.40216663645357 3.750095246727552 0  6.39375 3.565 0  5.846875 6.265 0  0.2127682824147084 1.9215625 0  0.607699940173331 0.8431476678143333 0  1.270397973338397 0.2479363044321548 0  5.826861590721315 1.225363214864182 0  5.895744270062652 4.959765766084354 0  1.590874624588825 0 0  5.553621165488657 0 0  3.113660982436554 2.365 0  1.050077073521563 0.7053514850398296 0  5.
[...]
<PointData  Scalars="f_162"> 
<DataArray  type="Float64"  Name="f_162"  format="ascii">8.1118579572534658e-13  1.1120937759429434e-12  1.4556543598418004e-12  9.8307189948148060e-13  9.9340679949011068e-13  1.4996423757219593e-12  5.2548699330515747e-13  8.0741482832268471e-13  4.9055146887414505e-13  1.4686354951504811e-12  1.3603984662877019e-12  4.7044760869210274e-13  4.2166979762770774e-13  5.3900981180503857e-13  1.2095830141081814e-12  9.2416745943131001e-13  4.6419510410228146e-13  3.0391388832043123e-13  6.2710460175299863e-13  2.2534889592907629e-14  1.4107843729422596e-14  1.4806175632238643e-14  1.4861938070263466e-14  8.0759611736756581e-15  3.0514064331357452e-15  2.1517803342914590e-16  1.8448853343323873e-12  5.7979226113685279e-14  1.1486293048491411e-12  2.3347692735510592e-12  1.4438383607971145e-12  5.8067397544524709e-13  1.2000536613067579e-12  7.9155695889507336e-13  2.2737694355898138e-12  1.0257506426369923e-12  1.0286816687256337e-12  9.7790432161821684e-13  3.1444584988290746e-13  7.2678546664286279e-13  1.5504927615403721e-13  1.5858907769861831e-12  1.0117008487270839e-12  3.5230307428598882e-13  1.2675054173105213e-12  1.5735295078642444e-12  9.1733111827186752e-13  2.6535747076451605e-12  1.6298398277855569e-12  9.8313297911241341e-13  2.7794813707181905e-13  1.1155498095518202e-12  1.3477916811358471e-12  6.2291319450035505e-13  1.7796068811941176e-12  1.1072521671393679e-12  9.9344979458900979e-13  1.1056995725673028e-12  7.8777976924149500e-13  3.5022405859488630e-13  3.5477016395502494e-13  8.1198272331560781e-14  2.2779779773066786e-15  2.3793880447055018e-12  7.9929555500113670e-13  1.6766410226903296e-12  1.0905980810699619e-12  1.4864082177803292e-12  2.0086069393547551e-12  1.3137279577686722e-12  9.5919195157765617e-13  5.9917266412712493e-13  5.7263137081011425e-13  1.0254165953555611e-12  1.0927310325321171e-12  1.4453027099157925e-12  8.0155071203914646e-13  6.9608885070073200e-13  1.1168508692083983e-12  6.4505853919098168e-13  1.2245356405764784e-12  4.9717915458247308e-13  2.6983320916506213e-13  8.6341747151500935e-13  1.1062885731295361e-12  1.4773356685613763e-12  1.8298663123165477e-12  9.4855178932627389e-13  1.6976695041519891e-12  1.9190259739951866e-12  1.3405445337489886e-12  1.6855863902677698e-12  1.3035713672352528e-12  8.5495175295254638e-13  4.0349291975352366e-13  1.0789401649514838e-12  6.5571625783908577e-13  3.9828269238317036e-13  1.0949862569040824e-12  1.4525995721605297e-12  1.2624445139383506e-12  1.5918518332055646e-12  1.2425372321632204e-12  7.0948983075808072e-13  6.7094522252377643e-13  1.0917474827502134e-12  5.1140764641787941e-13  1.2683395489022786e-12  4.5273394358682417e-13  4.2239037979418508e-15  1.2370969201179928e-12  1.4531911007903228e-12  1.7988507329196255e-12  1.1740361113364823e-12  1.1259064321257526e-12  1.0742509083131762e-12  1.6621722586879479e-13  1.4650858333497984e-12  1.6521140363328516e-12  1.6062848428691127e-12  1.9072414137549601e-12  1.1478820347809409e-12  9.8613511992996960e-13  7.3005063751300522e-15  1.1922732711782244e-12  1.1659289658040381e-12  1.1543831619337866e-12  1.0970939682476489e-12  1.0033761724408663e-12  5.9644295008633018e-14  3.6142447894068803e-14  2.6721518845726660e-14  5.7244250810985794e-16  1.6761416662917418e-13  1.1873438584342864e-12  1.2616161762753696e-12  6.2103412584467461e-14  3.1568750818226474e-13  2.3886213995659972e-13  1.6499348385900588e-14  1.4902138804367763e-13  1.0860214877759093e-12  2.1966922980554552e-12  5.0497615919352805e-14  1.0560466527690414e-13  2.3738736668011058e-14  3.5089676898485666e-15  2.5020478960002116e-13  6.9644431234156439e-13  8.5864157291873983e-13  2.5369331190440629e-12  5.2470457320880268e-13  5.5232542230533063e-13  4.7432133114118121e-14  2.7001708352616950e-14  2.2555480695336561e-14  1.0074326924395904e-14  8.6323580638116252e-13  5.5924761110450380e-13  2.8103115591685579e-14  1.8958453585931947e-13  8.3637270117050219e-14  2.2583807015406182e-12  1.6195724728029404e-12  1.1356294139579106e-12  1.3463811099004947e-12  1.5225193861732263e-15  1.2598297311266256e-13  1.7236835586713891e-14  1.8636060897122906e-12  9.2905188456287172e-13  5.7801007418968008e-13  2.6394055822295784e-13  6.9576998504010291e-14  1.1443416317111480e-13  3.7744091773857867e-13  2.8639830905854983e-14  7.1608004845103637e-14  3.2225801979657709e-13  1.2622184841797192e-13  8.1594459514179571e-14  6.2002227861236318e-13  1.0395415554902046e-12  1.9992171937214746e-12  2.0418073538706615e-14  1.3956941736420444e-12  1.2058904536082853e-12  9.8522304847349075e-13  1.9621490918162955e-13  3.1192923680294033e-16  1.9256844912447324e-12  1.9898448032442511e-12  4.4617819572308909e-13  2.2678986954738185e-13  1.0110437407474663e-13  3.9861486735560981e-13  3.5215086107411814e-14  -2.8412538528380955e-13  3.6548451931182337e-14  1.3611249275094275e-12  7.5240882431657125e-13  4.2738483571853346e-14  1.0673958010750802e-12  3.8293351227996455e-14  1.9176610384701609e-13  4.0824793857501584e-13  2.7187396243555362e-12  7.1238140693574916e-14  5.4149219029884945e-14  5.7053087222674219e-13  7.3184677849675065e-13  1.2739019227021489e-14  1.7122648007553561e-14  4.0798239935461006e-14  4.9954780949982835e-15  2.0273015304116519e-13  1.1196988543303717e-13  8.7877686732143965e-14  1.6700306203448905e-14  6.2864383055558927e-13  1.2772885742843820e-12  2.1746504642560702e-12  1.6095806094748071e-12  2.4021710325709029e-12  7.0781827466148918e-13  1.1577732014411121e-12  1.1964573720514192e-12  1.5878475579512456e-14  4.1682751477828541e-13  1.0795417543880923e-13  1.1261959266543940e-12  1.8114941242284390e-12  1.9258589283361658e-12  4.5953823192522831e-14  3.3524655604046314e-13  4.2817220659375887e-13  1.0842277992373135e-12  1.0229731480350177e-12  6.3300693684950989e-13  3.8454215614266607e-13  7.0093231087855409e-13  1.0677679604131860e-13  3.7376229005826195e-13  1.9869062866850708e-14  1.9241277243082792e-12  7.4022008303155933e-13  2.8705050125590095e-13  2.8470804191042280e-13  3.3714635823328184e-13  2.7185648187760335e-13  3.4580012000499386e-13  3.0094060739642278e-13  6.0715414596910471e-13  7.6315591753367990e-13  1.6219042280646353e-14  9.2011405615059143e-13  8.3512715570852665e-13  8.1996184130652112e-14  1.7416813270909539e-13  1.1679597806228843e-13  6.2294342620129774e-14  3.0561736694589927e-14  1.5007326718761857e-13  2.0016132007342065e-13  9.4307220806078601e-13  9.7034858445175643e-13  9.1744508130775066e-13  8.0471306413946648e-13  7.4144556390026612e-13  7.6455397397348156e-13  6.1942235415968576e-13  2.0669324877787077e-13  1.9545882123952569e-12  7.4811786495231912e-13  1.9807858828021498e-12  5.9879825264924436e-13  5.6069135435759114e-14  1.1768235570957526e-13  6.6622770838858022e-13  4.8100041187618516e-13  6.6831187716364859e-13  5.9369394396552561e-13  7.7252601032847718e-14  8.5944625464581557e-15  1.0306535004319523e-13  2.3579088254344146e-15  2.7973066868456609e-13  3.8625171809406851e-15  9.9322227392769480e-15  4.6062793827397515e-14  3.9658093440825017e-15  3.5780962919123889e-13  3.1189560769154347e-13  4.6942289123832169e-13  2.9524741618913597e-13  9.6642789871186567e-13  7.1783761177863796e-14  7.3248234479405318e-14  3.6648559128384927e-13  3.5347806998374374e-13  3.3761095440767825e-14  3.1879620910635190e-14  9.5765673385242382e-13  9.9249075550504326e-13  1.5303352898894201e-14  2.2644004630237058e-13  5.4378245206037638e-13  1.2182054886706441e-12  2.1762008100474103e-12  2.6608606599621222e-14  3.9590645178108645e-14  2.8284765552605917e-12  1.6761255185567127e-12  8.3937360937545837e-13  1.3091923550157780e-12  1.2239241709800709e-12  2.2494646221292538e-12  1.6096211697992704e-12  2.4410091662631976e-13  4.8848643941684757e-14  1.8950592731343287e-12  1.4270802739840029e-12  1.4191692650523775e-12  1.1966608842841603e-12  1.0257252371940029e-12  1.9385784061076430e-12  1.9486854936415273e-12  2.2919406465389596e-12  2.7814907656617021e-12  2.6747326698619444e-12  1.1700944426115489e-12  1.2463920597384923e-12  5.6010063658489013e-14  3.0487651703327642e-13  2.1820538305072475e-12  4.5992811595129611e-14  2.4802417764400288e-13  7.9785470319598341e-13  1.3980625945505518e-12  6.9498340534170983e-13  1.1802375338848799e-12  1.4022907215254893e-12  2.2074660883673581e-14  3.7621094234671087e-14  1.9971484838338463e-14  1.0946203835186164e-12  2.8463457913150437e-12  1.7315589172824809e-15  2.4260860153133861e-14  1.6729780256822548e-13  4.3373806739691690e-14  1.0049624163798202e-12  4.2536481247849590e-13  4.2085515597112630e-13  1.5000886232807432e-12  2.5063705466830593e-16  5.4686824358588231e-14  1.4442286952654644e-12  9.2104252443795776e-14  9.6683723955738147e-14  6.5703321207105209e-14  1.9762528361608887e-13  1.9264743147279426e-13  5.9329302175110975e-14  1.4148625596527560e-12  1.2061180495184125e-12  1.5162394954832022e-12  1.2982784677607945e-12  1.4318203486388661e-12  1.7766357902101143e-13  2.3509972058553621e-13  1.5404961784103881e-12  3.0705345312549549e-13  4.1630202899895561e-13  7.3152034345095603e-13  1.8735868543139518e-12  1.6907950963982190e-12  9.6936838768508228e-13  1.3733433807114370e-12  1.9457821884043373e-12  7.8367867778060841e-14  1.2939091892640376e-12  1.7329913305021773e-13  2.3483506225770359e-12  2.5428677457804376e-13  3.6811545294946202e-13  2.6039956616417758e-14  1.0078552501659497e-13  1.0433522229593368e-12  3.6681351401954905e-13  1.0192386484857801e-12  3.0928201092752993e-13  2.1495118120778851e-12  1.8444436970050463e-12  9.4309619205656127e-13  2.5473108221643558e-12  1.3400417230730763e-12  3.8992470373263828e-14  1.7863617927770408e-13  1.2552097475953650e-13  1.1917463392776874e-13  1.8097622867671079e-12  1.2042573694040206e-12  2.2956280323795122e-12  2.7832382174372177e-12  6.8806993291527729e-14  3.5382030119467314e-13  4.9262407865794605e-13  3.1382127693663691e-13  4.8063738433841328e-13  2.9980162890067087e-14  9.6028457073696220e-16  1.4962517974170635e-14  4.8550559423936326e-13  1.5907495866631792e-13  1.2874710392992661e-13  1.6866794744508093e-13  8.4717104389156987e-13  4.3818893540495756e-13  1.9214341700026913e-13  8.9005007261369488e-13  1.9915629798801590e-12  1.9692472173900005e-12  1.3541151073403528e-12  1.6344111498033909e-12  6.5707149039219551e-13  5.4803271617402517e-13  1.2780790628331056e-12  2.2918009813269096e-12  2.9332039448310511e-13  5.1811444045471623e-16  1.4267796915607683e-13  2.1532775038706427e-12  1.3730472529825495e-12  8.2594892173610627e-13  1.8488809845137294e-13  2.1519932543022866e-12  1.0601888882201989e-14  7.1055621991247400e-13  2.2012710651029518e-13  2.7000323193449600e-13  2.5914430189950260e-12  1.7956526459535500e-12  1.2521378261518719e-12  1.2811773900326411e-13  1.0966233659234555e-13  8.7027582939119296e-14  3.5055315044213725e-14  1.5319732469181824e-12  2.9712852345162736e-14  1.7938488170437453e-12  8.8010481163553397e-13  1.3597462330875882e-12  4.5436275717725278e-13  5.7547330210363718e-13  7.0422798582252307e-14  5.8061840436422759e-14  3.5284889906630229e-13  3.6032583400535297e-14  3.0800433496212634e-14  4.2642502391286955e-14  1.4681940496113325e-12  1.6339448704460846e-12  1.6583229688612863e-12  8.9048447290632289e-13  1.6925461524762788e-12  1.4082589413139310e-12  1.1645004784934273e-12  1.6053889156009532e-12  9.9379269511408978e-13  2.0640363358716809e-14  1.7029468935650930e-12  2.0645350521030917e-12  2.2893053294790200e-12  2.1148442766280800e-12  1.4686258879117203e-12  8.0418070552144378e-14  2.2268114031183904e-12  7.1065074602345091e-13  1.0477194953123384e-12  3.9967529050390965e-13  3.7830959554624087e-13  9.7258328503923558e-13  3.5317417146362535e-13  1.4688049205938435e-12  1.6039608331174626e-14  1.6669340345744569e-14  1.3613125944805176e-14  1.8653307931830532e-13  9.6456901316053899e-14  6.1848976444019816e-13  4.1717465376065569e-14  9.2723871105618255e-13  2.0999042127358329e-12  2.1251589113363301e-12  7.3513823834667936e-13  1.9925263738510398e-14  6.0704810839320918e-14  1.1021849568111228e-12  1.5051562079267333e-12  1.5129924518623515e-12  9.5667147723522018e-13  1.1801165059641788e-12  1.4350183585858651e-12  5.0158522813287502e-14  1.8645554797480810e-12  2.6580685356293995e-12  2.4638689429677283e-12  2.1541861443241410e-12  2.9391537647652581e-12  7.5764545378258436e-13  2.6177591946348681e-12  1.9828231488971514e-12  2.0060484101053026e-12  2.1894945438985403e-14  3.3578505611595124e-14  2.1069839769526526e-12  3.5227470013150794e-12  3.7825702131176037e-14  5.1928642267569355e-14  6.0103074449036365e-13  5.9967965841975829e-13  7.4388321353212652e-13  5.4132342700536340e-13  2.0696149285556743e-13  3.0214760788254413e-12  2.3688026239004496e-12  1.2875533492797002e-12  9.4517322086087096e-13  2.1750530682944306e-13  3.0066958786216014e-13  5.6323941200440259e-13  9.0152172803705891e-13  8.8676132350461528e-13  4.1673553577751249e-13  4.3057887185414148e-13  1.1206165274636457e-12  1.1645919913619784e-12  9.4423668243168680e-13  9.6610381946181303e-13  2.2489757299620403e-13  1.0637398729802533e-12  1.0831303710062681e-12  4.5092310284628899e-13  6.8397968182564460e-13  8.2640632916178336e-13  2.5380410049558184e-13  1.5654619899000957e-12  6.8674998063525917e-14  7.3458352840987386e-14  1.8497909246376372e-12  9.6298668934020315e-14  5.1516639799559876e-13  2.2377354233259794e-12  1.7880095935450234e-13  2.2789910853318889e-12  3.7766823022481788e-14  4.8305578680405720e-14  6.0753170600792430e-14  2.9575701445024425e-12  2.2786335169297719e-12  1.4393032512645948e-12  2.9017990995255557e-12  1.2189864071863650e-12  9.6395270233221846e-13  9.2542838539741402e-13  8.3641787976732164e-13  5.6249628968429718e-13  5.2567073320498386e-13  4.5367083350840300e-13  3.8291432122183436e-14  2.6634307390234729e-12  1.2796162185842202e-12  6.2245634910375036e-14  9.1628441135393364e-14  2.5187478929873438e-15  9.6823438258433859e-14  2.3670477068920838e-12  2.3780910387953840e-12  1.0315754719100038e-12  1.1536962094904395e-12  8.6212311689148950e-13  6.7151202377362072e-13  2.2055190153986514e-14  2.8547875423446665e-13  5.7530238436469724e-13  9.3680518810720061e-15  6.3481511112757413e-15  1.6435604178839412e-14  1.0924850323480648e-14  1.2911748491018058e-13  9.9602163338179364e-13  1.1883930595553411e-12  1.2007763940560298e-12  2.0480381289662987e-12  1.4514706426510490e-12  2.8718908284934065e-12  1.1350254680882071e-12  2.9429778312125145e-12  2.1129983531657841e-14  1.6761095940449872e-12  6.3958959038433635e-13  5.5399140399753494e-13  6.8306294096018808e-13  2.0786119679472995e-12  2.4687500407150709e-12  2.6884245395631377e-12  2.3088115660989056e-12  2.8777597915809419e-12  2.3772528120828427e-12  3.5735638401128346e-13  5.9060520058182543e-13  2.4001066877322294e-13  1.6222484738126994e-13  2.0063787746904027e-14  1.9067501184100259e-14  8.5935085421310496e-14  8.2079357673451297e-14  6.1898650537542470e-13  2.9135153127634582e-13  8.9893030472740908e-14  8.7518820858181559e-14  1.4636000798962072e-12  3.1595096165835694e-13  8.6767729108371501e-13  8.9775795392474273e-13  7.8956826441863608e-13  9.9628301895098732e-13  1.2867449441510950e-12  1.2528099394453355e-12  1.3743804707268392e-12  1.3008475637081513e-12  7.5524191024231252e-13  3.6547858654690643e-12  2.7217437114320288e-12  1.7434259206873196e-12  2.1450924781490058e-12  7.9508815004714131e-15  9.7461026678472487e-13  9.0351058705995444e-13  3.1385020973104677e-14  1.1165762830188067e-12  1.3296104282653878e-12  2.3263842215600743e-14  6.4331573853888977e-13  2.7603801414668760e-12  2.1413015052068647e-12  2.0810977041484606e-12  1.4518774097920801e-12  2.4839146875795405e-12  1.1404887146570343e-13  2.7028008227223194e-13  6.6875520478736712e-14  1.0107835689519719e-12  3.4418682472525552e-15  4.4783427926680056e-14  3.1772084846484914e-12  3.1067371750890747e-12  8.5218762817393118e-14  1.0382142961599121e-13  8.0107472081692648e-13  3.2937416875439754e-14  1.3847108438528767e-12  6.3793462126440685e-13  7.9666386245437084e-13  9.4584868366034685e-13  1.4628821827685913e-13  3.5971035985141443e-12  2.4511504822628331e-14  9.6802468412640630e-13  5.5412184289281321e-13  1.6454693756481505e-13  9.1853116620835266e-13  1.4430221782957845e-12  1.0115405803298529e-12  1.1751647077735652e-12  4.7376598301411934e-14  6.1618533427066342e-13  1.2413807154164893e-12  1.4079255225894221e-12  1.1865346614879749e-12  1.3402708177866272e-12  7.9875772908209020e-13  5.9248997723974874e-13  2.0263199201085456e-13  2.2791944975779712e-13  1.5725604468460512e-12  2.3016555522113098e-12  1.1890494769925432e-12  2.9246916074989830e-12  2.8699235179753253e-12  1.9433943272957497e-12  9.3264847036848711e-13  9.6554692823144256e-13  1.0093826928825208e-12  2.1977642277991545e-13  1.1033081878172533e-12  1.1117879741374157e-12  1.2503153580001179e-12  1.1701675709740195e-12  1.1126197895731659e-12  1.2912308380988893e-12  2.2985258844279804e-13  1.6769998177040030e-12  4.1569805745132901e-13  5.9453168739310352e-13  1.3419625583523841e-12  1.2362851488602116e-13  6.9826768794933751e-14  8.1348758800331023e-15  1.5162048355332010e-13  1.0684908278837670e-12  1.0272514711908332e-12  1.1744347317025867e-12  4.6376784305439262e-13  4.4739228708516098e-13  7.0919881062616163e-13  1.5672680656578053e-12  1.9205323397939199e-12  8.0210658390574943e-14  3.9809780691978939e-13  5.7867047765803622e-13  1.7279585475602499e-13  3.1748321478480155e-12  4.3232205168298846e-13  9.1053374212281063e-13  1.8939718242264590e-13  1.7989315395610265e-12  9.8686256159235564e-13  5.1692571541461853e-14  9.2823310150333932e-13  5.7549711316434333e-13  5.4630849311116702e-13  5.3509457817863104e-13  1.7015570890535412e-13  9.6727510198298353e-14  1.4058259386831524e-12  1.4494093199713457e-12  1.5628547511061292e-12  1.2139141163211505e-12  2.8962531229272289e-12  5.1753703137477587e-13  7.0815459854767505e-15  1.5750928704079680e-12  1.5097850644066248e-12  3.2779003063283790e-12  2.2558745489487847e-12  1.6717922938799875e-12  1.6349284027405650e-12  1.0360344389835986e-12  1.7784074302137489e-12  3.2704389681273636e-12  3.3878825123503322e-13  3.7192882023553771e-13  2.5179845329584603e-13  2.2495024489468887e-12  8.1643598942638905e-13  3.4077441760461067e-13  3.6272217735474908e-13  3.1544524167146818e-14  5.1550906955764843e-13  5.4431467127488097e-13  3.4409561764841005e-14  2.8601621545780149e-13  3.6028553195707304e-13  4.6314766300289397e-13  1.2928823247134924e-12  5.0215272777127174e-13  9.3883886716720971e-13  3.4797907548797928e-13  9.4546903447236594e-15  2.3453128833254465e-14  2.3274532175742534e-12  3.0858450919720318e-12  2.0973463560270626e-12  3.2666466323950873e-12  5.5581125130702468e-13  4.3184300074211139e-13  9.7423373371662887e-13  9.7582822469088071e-13  4.7178227135244403e-13  3.8930422487410931e-12  7.9625008706996707e-14  1.0204988948843618e-12  1.0634079951778725e-12  5.5674693800702179e-14  6.7623470407702009e-14  9.1531795036355167e-14  1.5627368652420994e-12  6.4228605290679974e-13  1.0955645067290390e-12  2.4068060291421635e-12  6.3895486747889429e-14  1.5935927046566818e-13  7.1007282310490833e-14  8.6076099840433791e-14  6.6063071938584729e-15  7.5458612616783696e-14  1.6294414437827109e-13  6.6931507835639283e-14  2.0054504784657188e-13  1.8763469987491192e-13  1.8401326669452132e-13  2.3157853271532266e-13  2.1506310351899853e-12  2.0566173830756761e-12  2.2717123467059023e-13  2.4734714597322634e-12  1.0401611900806596e-13  1.1566194623244260e-13  1.6683593153739669e-13  2.6579833249829566e-12  2.1208534707190901e-12  2.8490622112523463e-12  6.1459786367535583e-14  1.5634477015633199e-13  1.9213955049831285e-13  3.2356845284751433e-12  2.1702279024732576e-12  1.1742992668562295e-13  1.7642814034122715e-12  2.0501949179070900e-13  1.3024918521521914e-13  3.6642376061762707e-14  1.3173695265912352e-12  1.1047300307270640e-12  1.3586136161776742e-12  1.1974291387487535e-12  1.8159385144228872e-13  3.95111043564356