<?xml version="1.0"?>
<VTKFile type="UnstructuredGrid"  version="0.1"  >
<UnstructuredGrid>
<Piece  NumberOfPoints="1122" NumberOfCells="2077">
<Points>
<DataArray  type="Float64"  NumberOfComponents="3"  format="ascii">5.3 7.265 0  7.05 4.065 0  7.05 7.265 0  5.3 4.065 0  7.05 3.565 0  5.3 3.565 0  4.95 4.065 0  4.95 3.565 0  7.05 2.965 0  5.3 2.965 0  4.95 2.965 0  4.6 3.565 0  4.6 2.965 0  7.05 2.365 0  5.3 2.365 0  4.95 2.365 0  4.6 2.365 0  4.25 2.965 0  4.25 2.365 0  7.05 0 0  5.3 0 0  4.95 0 0  4.6 0 0  4.25 0 0  0 2.365 0  0 0 0  6.175 5.665 0  6.175 3.815 0  5.125 3.815 0  6.175 3.265 0  5.125 2.665 0  4.775 2.665 0  5.125 3.265 0  4.775 3.265 0  6.175 2.665 0  5.125 1.1825 0  4.775 1.1825 0  4.425 1.1825 0  4.425 2.665 0  6.175 1.1825 0  2.125 1.1825 0  7.05 5.888629622483688 0  5.3 5.441370377516312 0  6.210013736160064 4.065 0  6.175 3.565 0  5.3 3.870163890393343 0  4.95 3.759836109606658 0  6.175 2.965 0  5.3 2.712311099736245 0  4.95 2.665 0  4.6 2.665 0  4.95 3.265 0  5.3 3.312311099736244 0  4.6 3.217688900263754 0  6.175 2.365 0  5.3 1.1825 0  4.95 1.1825 0  4.6 1.1825 0  4.25 1.16962087603974 0  4.25 2.617688900263755 0  7.05 1.471030676090747 0  2.431857571898486 2.365 0  1.818142428101514 0 0  6.6125 4.865 0  6.629333272907139 3.685190493455103 0  5.713851351351352 3.423108108108108 0  5.7375 3.94 0  6.636148648648648 3.106891891891892 0  5.713851351351352 2.823108108108108 0  5.025580653828612 2.835433164865235 0  4.874419346171388 2.494566835134765 0  4.675580653828613 2.835433164865235 0  4.524419346171387 2.494566835134765 0  5.025580653828612 3.435433164865235 0  4.874419346171388 3.094566835134765 0  6.636148648648648 2.506891891891892 0  5.820468412007996 1.661624117486337 0  5.213442732999042 0.5848798184493331 0  5.036557267000958 1.780120181550667 0  4.863442732999042 0.5848798184493331 0  4.686557267000959 1.780120181550667 0  4.513442732999041 0.5848798184493331 0  3.1875 0.5912499999999999 0  7.05 4.976814811241844 0  6.6125 3.565 0  6.630006868080033 4.065 0  5.7375 3.565 0  5.755006868080033 4.065 0  6.6125 2.965 0  5.7375 2.965 0  4.95 2.815 0  5.125 2.965 0  4.95 2.515 0  4.800000000000001 2.365 0  4.6 2.815 0  4.775 2.965 0  4.6 2.515 0  4.449999999999999 2.365 0  4.95 3.415 0  5.125 3.565 0  4.95 3.114999999999999 0  6.6125 2.365 0  5.3 1.9275 0  5.3 0.5912500000000001 0  4.95 0.5912500000000001 0  4.95 1.77375 0  4.6 0.5912500000000001 0  4.6 1.77375 0  4.25 0.5848104380198699 0  3.034071214050757 0 0  6.83125 4.465 0  5.211822570533285 3.116161307657225 0  5.199644089736418 3.708365586090832 0  5.560234206003997 2.013312058743169 0  5.3 1.555 0  4.3375 1.77375 0  3.71875 0.295625 0  7.05 4.520907405620923 0  5.3 3.139999999999999 0  5.3 3.739999999999999 0  5.7375 2.365 0  5.080778633500479 1.481310090775334 0  4.25 1.76731043801987 0  3.642035607025378 0 0  4.95 1.478125 0  4.73077863350048 1.481310090775334 0  4.6 1.478125 0  4.38125 1.478125 0  4.25 1.468465657029805 0  1.0625 1.77375 0  0 1.1825 0  1.215928785949243 2.365 0  0.9090712140507571 0 0  3.340928785949243 2.365 0  5.3 6.353185188758156 0  5.7375 6.465 0  1.251926214046421 0.8638539258762323 0  2.998073785953579 1.501146074123768 0  6.6125 0.5912500000000001 0  6.314484661954626 0 0  7.05 0.7355153380453735 0  6.175 7.265 0  7.05 6.576814811241844 0  1.823893178923864 2.365 0  1.59375 1.478125 0  0 0.5912500000000001 0  2.426106821076136 0 0  2.65625 0.8868750000000001 0  5.3 4.753185188758156 0  6.384382461419411 6.63086506016126 0  5.965647764605047 4.698780141966616 0  5.95625 0.5512968727055005 0  3.573985453476257 1.146376094877751 0  0.6756920837505003 1.21855677338705 0  0 1.77375 0  0.5312499999999999 2.069375 0  0.6079643929746215 2.365 0  6.446593558696915 1.754199000482114 0  3.610596224419451 1.784975253492358 0  0.6394873570286449 0.5799959292452963 0  2.417022476128119 1.737785075476752 0  1.83297752387188 0.6272149245232482 0  6.39375 5.265000000000001 0  7.05 5.432722216862766 0  5.95625 6.065 0  5.3 5.897277783137234 0  1.363606821076136 0 0  2.886393178923864 2.365 0  5.807242330977314 0 0  5.66317075542392 5.097277783137233 0  6.531608295550142 6.093321366176391 0  6.39375 0.8868750000000001 0  7.05 1.10327300706806 0  1.519910982436554 1.97058461431516 0  2.730089017563446 0.3944153856848401 0  3.118321402239236 1.051513924837064 0  1.080031360230293 0.4321124510033665 0  1.131373342792352 1.313422525825128 0  3.170050834191505 1.932854926851105 0  2.299923182630591 0.5816821397526466 0  1.950076817369409 1.783317860247354 0  6.613181962233742 1.324697214951463 0  6.6125 7.265 0  7.05 6.920907405620921 0  5.51875 6.865 0  5.3 6.809092594379077 0  5.983458173428153 6.850120530156478 0  5.7375 0.9806135633003248 0  3.795464392974622 2.365 0  0.4545356070253785 0 0  5.707817604026098 5.669324080326772 0  6.382560485385842 4.479437374820383 0  7.05 1.918015338045373 0  2.588389785493746 1.326880192167154 0  1.703300758037187 1.049840817825812 0  3.81583399465085 0.749837075035683 0  0.3530001285220923 0.9165457830971103 0  5.7375 7.265 0  0.3230327290960819 1.478125 0  6.645222772803423 5.648779777756588 0  5.3 4.409092594379079 0  0.6966084743942642 1.616326964752643 0  5.95625 2.0342218763767 0  1.49184819442877 0.3932638652425394 0  2.659125375411175 2.045841681839123 0  5.614524271201718 0.3478746969228768 0  5.999107992102964 5.308994605056308 0  2.127875375411175 2.365 0  2.037600823622477 0.3085922016883884 0  3.93649851739085 2.000575559990484 0  3.906455196942886 1.319043266534772 0  0 0.295625 0  0.9119465894619322 2.365 0  0.7968749999999998 1.9215625 0  3.338053410538068 0 0  3.453125 0.4434374999999999 0  7.05 0.3677576690226868 0  6.83125 0.295625 0  6.682242330977314 0 0  6.668949774591622 6.886595444085661 0  5.68188834913787 4.441195406600733 0  6.758701711409929 5.204768514052305 0  5.59129828859007 6.125231485947695 0  6.163759209134029 4.993941590579597 0  6.233034970219983 6.300479647380988 0  6.703009859999504 6.429199314158878 0  5.609311330585206 1.36875 0  0.3587822425707757 0.3500213638980786 0  6.721382088515962 0.9965688100980222 0  2.209060623332511 2.022170427178749 0  5.3 5.097277783137233 0  7.05 6.232722216862767 0  6.059295437662608 4.370887739173418 0  0.8690637789301248 0.8872863262959064 0  3.466735784094473 0.8089436482612071 0  3.295985566969465 1.339922954220738 0  6.39375 2.096484771253884 0  6.711845829197576 1.970371788042478 0  6.060173353037894 0.8687877612331139 0  6.301258297484685 6.955053672984521 0  6.754921001691115 1.626730465232963 0  6.49836349646597 0.2780484381883498 0  6.284029928285962 0.5769414109938407 0  6.06086349646597 0 0  5.643646453505415 4.768412579276713 0  5.655197341664164 0.6682895817033545 0  2.872957907069126 1.801096788690002 0  4.6 0.295625 0  4.906721366499522 0.2924399092246666 0  4.55672136649952 0.2924399092246666 0  4.95 0.295625 0  3.568196589461933 2.1179624530524 0  3.620056836640555 1.464083854703579 0  3.927107481851438 1.660653323618258 0  0.7896275243076972 0.2971318722880981 0  6.12561317803929 1.761463214735561 0  6.326880341955087 1.460708780209755 0  1.429466162327612 1.207949778943681 0  2.296927843562433 1.446513085688053 0  1.980950224264427 0.9038259360937273 0  1.52702416133256 0.7076527164671081 0  0.4258514322303463 1.77420426839212 0  1.859375 1.3303125 0  2.390625 1.0346875 0  5.3 0.8868750000000001 0  5.169221366499521 0.8836899092246666 0  4.95 0.8868750000000001 0  4.819221366499521 0.8836899092246666 0  4.6 0.8868750000000001 0  4.46922136649952 0.8836899092246666 0  4.25 0.8772156570298049 0  6.140746550782823 0.3007326298726944 0  6.83125 3.565 0  7.05 3.265 0  6.83966663645357 3.625095246727552 0  7.05 2.665 0  1.214780807536237 2.049765590706595 0  3.186062312294412 0.276090769979388 0  4.29375 2.069375 0  4.6 2.069375 0  4.25 2.066155219009935 0  4.643278633500479 2.072560090775334 0  1.328125 1.6259375 0  3.946017803512689 0 0  3.984375 0.1478125 0  2.122124624588825 0 0  2.921875 0.7390625 0  0.3039821964873107 2.365 0  0.2656249999999999 2.2171875 0  1.519910982436554 2.365 0  2.730089017563446 0 0  3.267848714624348 1.643786705677805 0  3.962128140614412 0.4810864575242905 0  6.088735565830333 6.566440677959418 0  2.87287907903055 1.226769242480236 0  5.997734206003997 1.422062058743168 0  2.335585913229898 0.2848909091867997 0  1.915727811171581 2.080394075538645 0  5.3 0.295625 0  5.256721366499521 0.2924399092246666 0  0 1.478125 0  0 0.8868750000000001 0  4.95 2.069375 0  4.993278633500479 2.072560090775334 0  0 2.069375 0  4.25 0.2924052190099349 0  3.841572739148465 1.037556133343355 0  6.247685367118326 6.002851795106343 0  5.596179388183639 5.390271738108119 0  0.361226814135335 0.633338030484755 0  0.390270021626804 1.200123785848559 0  6.341029012534215 4.765551947817491 0  5.555765280690617 2.58528286847223 0  6.818326003308544 6.060675919673228 0  5.628125 6.665 0  5.3 6.581138891568616 0  6.721875 4.665 0  7.05 4.748861108431384 0  2.729013460599041 1.564984855461338 0  1.766005998581615 0.3591878959166037 0  6.83125 7.265 0  5.527503434040016 4.065 0  5.51875 4.0025 0  6.414708980099403 5.79017371349605 0  5.555816552627036 1.629876120346811 0  6.405574324324323 3.185945945945946 0  6.405574324324323 2.585945945945946 0  5.944425675675676 3.344054054054054 0  5.95625 2.965 0  5.944425675675676 2.744054054054054 0  6.83125 2.965 0  6.843074324324323 3.035945945945945 0  0.9539220190930711 1.522188675922875 0  5.875323973896693 0.2985022980005431 0  6.284375 5.465 0  1.28446357176077 0.6008092986991798 0  2.93210457621998 2.068557687752316 0  7.05 2.141507669022687 0  6.420010302120049 4.065 0  6.40216663645357 3.750095246727552 0  6.39375 3.565 0  5.846875 6.265 0  0.2127682824147084 1.9215625 0  0.607699940173331 0.8431476678143333 0  1.270397973338397 0.2479363044321548 0  5.826861590721315 1.225363214864182 0  5.895744270062652 4.959765766084354 0  1.590874624588825 0 0  5.553621165488657 0 0  3.113660982436554 2.365 0  1.050077073521563 0.7053514850398296 0  5.
[...]
<PointData  Scalars="f_255"> 
<DataArray  type="Float64"  Name="f_255"  format="ascii">1.3135373592376767e-05  1.6510486602783271e-05  2.5406479835510325e-05  1.8551945686340390e-05  2.4586915969854933e-07  7.5399875640869784e-06  3.7439167499542617e-06  1.0315328836441086e-05  6.3553452491760974e-06  1.7359852790832691e-06  3.6470592021942461e-06  1.4081597328186245e-06  1.3757497072219927e-05  8.8177621364594099e-06  2.2724270820618600e-07  9.8347663879396734e-07  5.4240226745605901e-06  6.8917870521546935e-07  4.4684857130051100e-06  3.0770897865295825e-06  1.0840594768524236e-06  1.6018748283386385e-06  1.9147992134094420e-06  2.1383166313171586e-06  2.9383227229118548e-07  1.7120811435237812e-08  9.1493129730225101e-06  5.5059790611267437e-06  2.5071203708649109e-06  2.6486814022064654e-06  9.2387199401857089e-07  4.4293701648712607e-06  4.2021274566650941e-06  5.1632523536682696e-06  4.1685998439789106e-06  1.7937272787094264e-06  2.0992010831833102e-06  2.6822090148926048e-06  6.2845647335052982e-06  1.3448297977447686e-06  2.6449561119079934e-07  1.5042722225189275e-05  1.0758638381958030e-05  1.7657876014709739e-06  5.8598816394806374e-06  2.2388994693756476e-06  3.9115548133853660e-07  2.5816261768341412e-06  4.0605664253235562e-07  3.6396086215973061e-06  3.6619603633880967e-06  8.5979700088501366e-06  4.5038759708404837e-06  3.4570693969726711e-06  5.1036477088930097e-07  8.7544322013855700e-07  1.5571713447570890e-06  2.0004808902740635e-06  2.4009495973587278e-06  3.1460076570511038e-06  6.8470835685730472e-06  4.1816383600235255e-07  1.4412216842174633e-07  1.2069940567016813e-06  3.0100345611572592e-06  1.3969838619232332e-06  3.2670795917511147e-06  1.2777745723724785e-06  8.1583857536317114e-07  1.0691583156585763e-06  2.6561319828033659e-06  8.4452331066131914e-06  7.0221722126007402e-06  3.8966536521911994e-06  4.4554471969604873e-06  4.9434602260590023e-06  3.2782554626465484e-07  9.0524554252625592e-07  1.8961727619171412e-06  1.1287629604339773e-06  3.5706907510757827e-06  2.1643936634063954e-06  1.5329569578170935e-06  1.7985701560974175e-05  6.5192580223083886e-06  1.1771917343139949e-06  3.8295984268188688e-06  1.2591481208801439e-06  2.7418136596679975e-06  3.1292438507080192e-06  1.3709068298339935e-06  2.0675361156463771e-06  1.4305114746093830e-06  1.8253922462463639e-06  7.6815485954284973e-06  3.7699937820434901e-06  5.2154064178467093e-06  4.5802444219589513e-06  8.2254409790039418e-06  5.1483511924744017e-06  5.5395066738128899e-06  3.8705766201019702e-06  1.5050172805786258e-06  4.4144690036774153e-07  1.4696270227432361e-06  3.2410025596619000e-06  2.3692846298217972e-06  2.4810433387756699e-06  1.9725412130356064e-06  1.3383105397224564e-06  6.5490603446960805e-06  1.3560056686401581e-06  8.1732869148254750e-06  7.0780515670783236e-08  7.0035457611085064e-07  4.2617321014404678e-06  2.0219013094902272e-06  1.0654330253601101e-05  3.5800039768219130e-06  6.0014426708221800e-06  1.2777745723724450e-06  1.7657876014709600e-06  2.6188790798187552e-06  1.9874423742294511e-06  1.8458813428878985e-06  2.9318034648895501e-06  2.2128224372864007e-06  2.4419277906418113e-06  1.6875565052032716e-06  1.8207356333732777e-07  1.8812716007233029e-07  1.1175870895387547e-08  2.1030427888036055e-07  1.2665987014770573e-06  1.0885298252105740e-05  4.4703483581545261e-07  1.0780058801174246e-07  9.8999589681626785e-07  3.0733644962311121e-06  1.5050172805786338e-06  2.9690563678741785e-06  1.6100704669952450e-05  1.0825693607330378e-05  6.2584877014160357e-07  1.1688098311424400e-07  2.3978645913303237e-07  6.2305480241776222e-07  7.3201954364777585e-07  9.6857547760009935e-06  3.1366944313049770e-06  4.0903687477111935e-06  1.2107193470001375e-06  1.9157305359840622e-06  1.6228295862674845e-07  6.8917870521548137e-08  1.1175870895385941e-07  2.6263296604156669e-07  3.2447278499603653e-06  1.9278377294540587e-06  3.0966475605965044e-08  4.9360096454620827e-07  1.7089769244194235e-07  6.7204236984253404e-06  1.8179416656494175e-05  2.4810433387756720e-06  1.2651085853576697e-05  1.0628718882799306e-07  1.4398247003555330e-06  1.3411045074463542e-07  6.4074993133545201e-06  1.3709068298340151e-06  2.1755695343017862e-06  3.7364661693573341e-06  2.7474015951156849e-07  9.8114833235741678e-07  1.9250437617302119e-06  3.7485733628273824e-08  8.4750354290009445e-08  7.8976154327393616e-07  4.6053901314735937e-07  4.6845525503158829e-07  2.2426247596741057e-06  1.2218952178955117e-05  1.1429190635681208e-05  1.4483928680419966e-05  7.7262520790100420e-06  3.3080577850342115e-06  5.5134296417237334e-07  1.6912817955017181e-06  3.1721720006317186e-07  6.9960951805115212e-06  2.2351741790774552e-07  7.5399875640869742e-06  6.0535967350006813e-07  2.3981556296348789e-07  2.2109597921371697e-06  1.8568243831396323e-07  1.3247132301330614e-05  2.4889595806598928e-07  8.2701444625859077e-07  8.8363885879516856e-06  1.2223608791828330e-07  7.8231096267701413e-07  9.3132257461554022e-09  3.4645199775696193e-07  1.2479722499847762e-07  2.1681189537048691e-06  9.0897083282470915e-07  2.3632310330868040e-07  1.7806887626648174e-06  2.2016465663910196e-06  2.8309295885265149e-07  2.4354085326194917e-07  2.6030465960502794e-07  1.6419216990471058e-06  1.7695128917694293e-06  3.3266842365265286e-06  3.1627714633941934e-06  2.3245811462402653e-06  6.7576766014099443e-06  5.2899122238160990e-07  4.5448541641238793e-07  4.1499733924866019e-06  2.3394823074341028e-06  1.3709068298340178e-06  2.5555491447449099e-06  8.9406967163094077e-08  1.3678800314673361e-09  3.1106173992157338e-06  1.6950070858001910e-07  5.2377581596374800e-06  1.5519559383392381e-05  4.4703483581567771e-08  6.2864273786545448e-08  2.1746382117271635e-06  1.7704442143440454e-06  3.0547380447387899e-06  5.7332217693329400e-06  1.5124678611755568e-06  2.3916363716125827e-06  4.0382146835327597e-06  2.3730099201202668e-06  1.4640390872955545e-06  1.3485550880432216e-06  3.0547380447387911e-06  2.2351741790771953e-07  8.3725899457932535e-07  1.9725412130356042e-06  1.2964010238647622e-06  1.9352883100509834e-06  1.5851110219955571e-06  3.1664967536927016e-07  1.6428530216217263e-06  2.7343630790710712e-06  1.0617077350616609e-07  1.4640390872955568e-06  8.8661909103396138e-07  1.5133991837501658e-07  6.3702464103699133e-07  3.7625432014465655e-07  1.7601996660232666e-07  1.9813887774944525e-07  7.3108822107316705e-08  6.4773485064507187e-07  1.2293457984925005e-07  1.7527490854263428e-06  1.6335397958755629e-06  1.8030405044555865e-06  2.5033950805664266e-06  2.6002526283264359e-06  2.0135194063186832e-06  1.3094395399093793e-06  1.0803341865540019e-06  1.1920928955078172e-05  5.9604644775390981e-06  7.5697898864746661e-06  3.0873343348503356e-07  1.4379620552063149e-06  9.3691051006320474e-07  6.1113387346268132e-06  3.8892030715942756e-06  3.7569552659988780e-06  1.4388933777809270e-07  2.1960586309433195e-06  2.1830201148987011e-06  3.6554411053657871e-07  1.2274831533432132e-06  2.7008354663850191e-08  2.0628795027733008e-07  1.3504177331924624e-07  8.9686363935471523e-07  1.1436641216278227e-06  2.1252781152725444e-06  3.9339065551758092e-06  8.8103115558625400e-07  1.1026859283447427e-06  6.0070306062698978e-07  2.2817403078079396e-07  9.7788870334625625e-07  7.1153044700623183e-07  8.0442987382415318e-08  1.9161961972713817e-07  6.1541795730591329e-06  3.6731362342834689e-06  1.8323771655559783e-07  2.0051375031471464e-06  2.4344772100448858e-06  3.4198164939880731e-06  6.3851475715637698e-06  1.4237593859434297e-07  2.3201573640108328e-07  2.1234154701233249e-06  1.2665987014771111e-07  2.8684735298157221e-06  2.3543834686279454e-06  1.5892088413238552e-05  2.5555491447448862e-06  2.1889805793762231e-05  9.0338289737702380e-07  1.3224780559539903e-07  2.3245811462402391e-05  2.2910535335540992e-06  2.4735927581787266e-06  6.3702464103699213e-06  5.6251883506775368e-07  5.6512653827667685e-06  2.7157366275787654e-06  1.6987323760986546e-06  6.7800283432009261e-07  1.3187527656555280e-06  4.2021274566650924e-06  1.3031065464019823e-05  1.7974525690078847e-07  7.3201954364777225e-07  9.3504786491394348e-06  3.7718564271927231e-08  9.1269612312317784e-07  9.4994902610779114e-06  2.8312206268310750e-06  1.5869736671447993e-06  4.5001506805420303e-06  3.1888484954834094e-06  2.1280720829963848e-07  1.0256189852953027e-07  8.9523382484913508e-08  8.0838799476624276e-07  2.5480985641479662e-06  8.3586201071739713e-08  2.2165477275848592e-07  1.6745179891586350e-06  9.7788870334628305e-09  4.0493905544281209e-06  5.5506825447082858e-06  1.0430812835695281e-07  7.7858567237855370e-07  4.0043596527539342e-07  5.0058588385582718e-08  1.9408762454986589e-05  1.0784715414047326e-06  5.7741999626160905e-08  1.8347054719925046e-07  9.2433765530586836e-07  1.2516975402832127e-06  7.3807314038277149e-07  7.7486038208010830e-07  5.7704746723175345e-06  3.4347176551819059e-06  3.5837292671203999e-06  5.1148235797882521e-06  2.6784837245941382e-06  3.8109719753265643e-06  6.4074993133548850e-07  1.0933727025985777e-06  3.2298266887665002e-06  1.7471611499786523e-06  9.3504786491397113e-07  3.8109719753265550e-06  1.6391277313232655e-06  1.8551945686340635e-06  2.9854476451873793e-05  1.2898817658424462e-07  8.8661909103395238e-07  2.0209699869156072e-07  1.9967555999755986e-06  1.5929341316223161e-05  8.0838799476623925e-06  1.2340024113655196e-07  1.7499551177024966e-06  3.3527612686160423e-08  3.1106173992157105e-06  7.8752636909485067e-06  1.9874423742294443e-06  2.5629997253418134e-06  3.6805868148804054e-06  9.0524554252625003e-06  2.1159648895263696e-05  4.2021274566650585e-06  1.7695128917694256e-07  6.2864273786545340e-07  7.2503462433815542e-07  3.4086406230926784e-07  4.9918889999393418e-07  9.5739960670471598e-06  5.6624412536621331e-06  3.6954879760742420e-06  4.6100467443466643e-08  1.5394762158393981e-06  2.1327286958694589e-06  2.7567148208618540e-07  1.1418014764785828e-06  2.5844201445579853e-08  2.2619497030973564e-07  1.9994331523776187e-07  2.1262094378471548e-06  3.6507844924927028e-07  2.2677704691887024e-07  3.1664967536926465e-07  1.0542571544647422e-06  2.4810433387756610e-06  7.3295086622238742e-07  4.2207539081573715e-06  6.0796737670898725e-06  2.8163194656372282e-06  4.2691826820373738e-06  4.1723251342774427e-07  3.3840537071228048e-05  1.0430812835693635e-06  1.5288591384887705e-05  2.6419758796691935e-05  1.8775463104248068e-06  3.2590469345450613e-07  1.4565885066986114e-06  3.3378601074218974e-06  6.6310167312623383e-07  1.3541430234909132e-06  5.9604644775391988e-08  5.6400895118713548e-06  1.7811544239521164e-07  6.7912042140961032e-06  4.0605664253235276e-07  7.6089054346085135e-07  4.4964253902435608e-06  1.0393559932708812e-06  6.4373016357422061e-06  1.7182901501655756e-07  1.4249235391616962e-07  2.3888424038887183e-07  2.5826739147305647e-07  2.2463500499725482e-06  2.2398307919502425e-07  1.5720725059509453e-06  3.0115246772766147e-05  5.9679150581360007e-06  2.1718442440033078e-06  2.2649765014648590e-06  2.5657936930656565e-07  8.4750354290009974e-08  1.2954697012901412e-06  2.8137583285570303e-07  1.8835999071598220e-07  1.3085082173347605e-07  1.2442469596862924e-06  2.7604401111603003e-06  2.5741755962372051e-06  3.2782554626465018e-07  3.2633543014526503e-06  1.0766088962554978e-06  1.1846423149108978e-06  7.3015689849853833e-07  1.3388693332672150e-05  1.7636921256780746e-07  4.7534704208374269e-06  2.3841857910157240e-07  5.2154064178467199e-07  1.2814998626709166e-06  9.6112489700317997e-07  6.3329935073853373e-08  2.8610229492187602e-06  2.3990869522094858e-06  2.5443732738495009e-06  2.8610229492187674e-06  3.0472874641418601e-06  1.3932585716247631e-06  1.3988465070724566e-06  1.5720725059509464e-06  1.6316771507263306e-06  9.7602605819702826e-07  1.8738210201263570e-06  3.0780211091041830e-07  1.4156103134155400e-07  4.1574239730835190e-06  1.2142118066549378e-07  1.5273690223694057e-07  3.4347176551818996e-06  7.1153044700622720e-06  5.3159892559051802e-06  9.1618858277798149e-08  1.0337680578231866e-07  6.8917870521546374e-07  2.1792948246002252e-06  8.2328915596008756e-07  8.2515180110931651e-06  4.7162175178527993e-06  3.3825635910034497e-06  1.3271346688270648e-07  3.4421682357788569e-06  5.5730342864990429e-06  6.9439411163330290e-06  1.6391277313233703e-07  4.1529536247253445e-05  2.9876828193664754e-06  4.3734908103943227e-06  3.4719705581665297e-06  2.5779008865356577e-06  5.2852556109428816e-08  2.1373853087425333e-07  3.6284327507019322e-06  4.9918889999390919e-07  1.6158446669578650e-07  1.3178214430809092e-07  9.3877315521240785e-07  6.9104135036469279e-07  2.3655593395233310e-07  5.5879354476929230e-07  2.5518238544464328e-07  3.4496188163757536e-06  7.0780515670778622e-07  4.6938657760620620e-07  1.2964010238647520e-06  5.9325248003006331e-07  3.1664967536926630e-07  1.5906989574432466e-06  3.7960708141327184e-06  4.1797757148742938e-06  2.1513551473617732e-06  1.6726553440094147e-06  5.1781535148621495e-07  1.1324882507324255e-06  2.0321458578109877e-06  1.7061829566955666e-06  3.1664967536928632e-08  4.4815242290497106e-06  5.1334500312805523e-06  5.4948031902314027e-07  2.3823231458664059e-06  2.4084001779556435e-06  2.2910535335540930e-07  3.2484531402588035e-06  1.4947727322578507e-07  7.2177499532700247e-08  2.0489096641540743e-06  1.3373792171478271e-06  1.5459954738617032e-06  4.2915344238281377e-06  1.0896474123001285e-07  2.6822090148926390e-07  1.0360963642597486e-08  1.1175870895385803e-07  6.2398612499237325e-08  6.8843364715576485e-06  2.1606683731079301e-06  9.4994902610780852e-07  3.7252902984628921e-08  4.4517219066620355e-07  2.1681189537048501e-06  6.7166984081268539e-06  1.0255724191665665e-05  4.4852495193481564e-06  1.9334256649017453e-06  4.1462481021881248e-06  1.5343539416790099e-07  9.9837779998779826e-07  8.0987811088562334e-06  8.1025063991547081e-08  2.7660280466079902e-07  1.4086253941059263e-07  3.8463622331619448e-07  7.0258975028991911e-06  3.4645199775695957e-06  2.2705644369125553e-06  1.7788261175155798e-06  2.4866312742233420e-06  2.7623027563095266e-06  1.5366822481155552e-07  1.9790604710579012e-06  2.1103769540786858e-06  2.0088918972761286e-08  9.4994902610780026e-08  1.9604340195655955e-07  1.9511207938194440e-06  2.0572915673256060e-06  3.7625432014465607e-07  1.0654330253601159e-06  1.4100223779678423e-06  6.3292682170868174e-06  1.3217329978942907e-05  3.1702220439911062e-06  1.2487173080444370e-05  3.4719705581665204e-06  3.0326191335917022e-08  2.3394823074340918e-06  2.2426247596740858e-06  2.3152679204940906e-06  2.0023435354232907e-06  5.2154064178476591e-08  3.6805868148803893e-06  2.3990869522094943e-06  8.3893537521362576e-06  5.2899122238160514e-07  2.0563602447509833e-06  1.1418014764785849e-06  1.7751008272171143e-06  1.9483268260955908e-06  1.4454126358032339e-06  2.2947788238525577e-06  3.3602118492126710e-06  3.3006072044372753e-06  4.0568411350250498e-06  6.7539513111114790e-06  9.3411654233933141e-07  1.7974525690078794e-07  8.1025063991547412e-08  1.6391277313233782e-07  1.6950070858001825e-06  1.4677643775940041e-06  7.5995922088623597e-07  1.6763806343078721e-06  4.9360096454620848e-07  3.0510127544403237e-06  2.7548521757125998e-06  3.5073608160019116e-06  2.1047890186309933e-06  2.2165477275848511e-06  1.6242265701294108e-06  1.8551945686340387e-06  5.1409006118775145e-07  7.9646706581115909e-06  1.4818215277046053e-07  3.5390257835388941e-07  2.0489096641540642e-06  1.4482066035270786e-07  3.4272670745849879e-07  5.7741999626163724e-08  3.0384398996830337e-08  2.3096799850464240e-06  4.9397349357605218e-06  1.5348196029663232e-06  9.0152025222780332e-07  1.8849968910217397e-06  5.3197145462036345e-06  4.0978193283082252e-08  2.5890767574310451e-06  8.7125226855278566e-07  2.2463500499725520e-06  3.8277357816696501e-07  3.8044527173042546e-07  4.9918889999391501e-07  2.0265579223633088e-06  5.3644180297851647e-07  6.7055225372315168e-08  2.0824372768402235e-06  4.3422915041447017e-08  3.5092234611511319e-06  1.6018748283386353e-06  2.3152679204940936e-06  2.3078173398971693e-06  8.9220702648163488e-07  3.0621886253357133e-06  2.0535662770271397e-07  1.2479722499847505e-06  3.7252902984624693e-08  1.9185245037078908e-07  1.4603137969970834e-06  2.2277235984802382e-06  1.3817101716995251e-05  1.9367784261703505e-05  3.2735988497734213e-07  1.8887221813202019e-06  3.1106173992157152e-06  2.9839575290680114e-06  4.3734908103943117e-06  1.9893050193786799e-06  3.4756958484649853e-06  2.4475157260894974e-06  2.9504299163818592e-06  2.0209699869156028e-06  1.4238059520721449e-05  2.3216009140014692e-05  6.5788626670837496e-06  2.7157366275787370e-05  2.0042061805725121e-05  5.3048133850097758e-06  3.0230730772018589e-06  2.2668391466140891e-06  2.1029263734817619e-06  1.7564743757248007e-06  1.5273690223693932e-06  1.2647360563278268e-06  1.4919787645340078e-06  2.8330832719803009e-06  2.7231872081756740e-06  2.0619481801986864e-06  1.0151416063308786e-06  5.9604644775392351e-07  1.7769634723663436e-06  1.4994293451309295e-06  2.2873282432556339e-06  1.8207356333732717e-06  2.0908191800117624e-06  2.3236498236656329e-06  1.7732381820678819e-06  2.5052577257156567e-06  5.6847929954529071e-06  1.6763806343078734e-06  1.3681128621101464e-06  1.7276033759117237e-06  2.8461217880249189e-06  6.5192580223083835e-06  5.8561563491821594e-06  2.5378540158272567e-08  4.6379864215850994e-07  8.8848173618317275e-07  3.4365803003311321e-07  1.7881393432617478e-06  1.9203871488571349e-06  2.1867454051971546e-06  6.5192580223085362e-08  3.2074749469757330e-06  4.7981739044189733e-06  2.4884939193725777e-06  4.0158629417419696e-06  1.7099082469940378e-06  3.7625432014466804e-07  5.2228569984436289e-06  2.8833746910095376e-06  3.0063092708587854e-06  3.7252902984673619e-09  7.6740980148315790e-07  5.1707029342651731e-06  1.9446015357971293e-06  1.7136335372925474e-07  1.3094395399093730e-06  1.0305084288120344e-06  5.6251883506775114e-06  4.8801302909851311e-06  1.5109777450561549e-05  2.5331974029543228e-07  3.6276876926422133e-05  4.1350722312927834e-07  2.7827918529510672e-06  2.2351741790772355e-07  4.7683715820312902e-07  9.8347663879394976e-07  1.1147931218147343e-06  5.0105154514313104e-07  5.7071447372436761e-06  3.3043324947357343e-06  3.4831464290619066e-06  2.0992010831833009e-06  8.9057721197605610e-08  1.4547258615493893e-06  1.3578683137893768e-06  1.8347054719925088e-07  1.2293457984924397e-06  5.5730342864990472e-06  9.0338289737702168e-07  1.3001263141632135e-06  1.7778947949409601e-06  3.8314610719680981e-06  1.9725412130355945e-06  2.1810410544276372e-07  1.1944212019443586e-07  3.6805868148803872e-06  3.4682452678680653e-06  5.1297247409820828e-06  2.9876828193664724e-06  2.3311004042625559e-06  1.0263174772262633e-06  4.1592866182327550e-06  2.6449561119079789e-06  7.2829425334930505e-07  1.0803341865539741e-06  9.4994902610779431e-08  1.4416873455047724e-06  2.2090971469879341e-06  2.4912878870964404e-08  2.0256265997886719e-07  2.1886080503463811e-07  4.2468309402467779e-07  1.2218952178955222e-06  3.3155083656311141e-06  3.9488077163696983e-07  1.3969838619232265e-07  6.3609331846237500e-07  1.2293457984924425e-07  3.3434480428695816e-07  1.3858079910278430e-06  1.5478581190109336e-06  1.7080456018447982e-06  1.1776573956012806e-06  1.3587996363639912e-06  3.5203993320465273e-07  6.4820051193237580e-07  6.5844506025314659e-07  6.7055225372315237e-07  1.8030405044555740e-06  2.1094456315040698e-06  4.5225024223327806e-06  1.1129304766655132e-07  2.1932646632194657e-07  3.3108517527580494e-07  7.6740980148316901e-07  1.1175870895385765e-06  5.2079558372497804e-06  2.1327286958694561e-07  3.6414712667465506e-07  2.0340085029602085e-06  4.0158629417419527e-06  7.5176358222961544e-06  6.7986547946930554e-08  1.2628734111785954e-06  5.8487057685852284e-07  1.3783574104309179e-06  7.1013346314430541e-08  1.3634562492370929e-06  1.0900199413299593e-05  1.4342367649078391e-05  2.5779008865356551e-06  3.3667311072349697e-07  3.039836883544941