<?xml version="1.0"?>
<VTKFile type="UnstructuredGrid"  version="0.1"  >
<UnstructuredGrid>
<Piece  NumberOfPoints="1122" NumberOfCells="2077">
<Points>
<DataArray  type="Float64"  NumberOfComponents="3"  format="ascii">5.3 7.265 0  7.05 4.065 0  7.05 7.265 0  5.3 4.065 0  7.05 3.565 0  5.3 3.565 0  4.95 4.065 0  4.95 3.565 0  7.05 2.965 0  5.3 2.965 0  4.95 2.965 0  4.6 3.565 0  4.6 2.965 0  7.05 2.365 0  5.3 2.365 0  4.95 2.365 0  4.6 2.365 0  4.25 2.965 0  4.25 2.365 0  7.05 0 0  5.3 0 0  4.95 0 0  4.6 0 0  4.25 0 0  0 2.365 0  0 0 0  6.175 5.665 0  6.175 3.815 0  5.125 3.815 0  6.175 3.265 0  5.125 2.665 0  4.775 2.665 0  5.125 3.265 0  4.775 3.265 0  6.175 2.665 0  5.125 1.1825 0  4.775 1.1825 0  4.425 1.1825 0  4.425 2.665 0  6.175 1.1825 0  2.125 1.1825 0  7.05 5.888629622483688 0  5.3 5.441370377516312 0  6.210013736160064 4.065 0  6.175 3.565 0  5.3 3.870163890393343 0  4.95 3.759836109606658 0  6.175 2.965 0  5.3 2.712311099736245 0  4.95 2.665 0  4.6 2.665 0  4.95 3.265 0  5.3 3.312311099736244 0  4.6 3.217688900263754 0  6.175 2.365 0  5.3 1.1825 0  4.95 1.1825 0  4.6 1.1825 0  4.25 1.16962087603974 0  4.25 2.617688900263755 0  7.05 1.471030676090747 0  2.431857571898486 2.365 0  1.818142428101514 0 0  6.6125 4.865 0  6.629333272907139 3.685190493455103 0  5.713851351351352 3.423108108108108 0  5.7375 3.94 0  6.636148648648648 3.106891891891892 0  5.713851351351352 2.823108108108108 0  5.025580653828612 2.835433164865235 0  4.874419346171388 2.494566835134765 0  4.675580653828613 2.835433164865235 0  4.524419346171387 2.494566835134765 0  5.025580653828612 3.435433164865235 0  4.874419346171388 3.094566835134765 0  6.636148648648648 2.506891891891892 0  5.820468412007996 1.661624117486337 0  5.213442732999042 0.5848798184493331 0  5.036557267000958 1.780120181550667 0  4.863442732999042 0.5848798184493331 0  4.686557267000959 1.780120181550667 0  4.513442732999041 0.5848798184493331 0  3.1875 0.5912499999999999 0  7.05 4.976814811241844 0  6.6125 3.565 0  6.630006868080033 4.065 0  5.7375 3.565 0  5.755006868080033 4.065 0  6.6125 2.965 0  5.7375 2.965 0  4.95 2.815 0  5.125 2.965 0  4.95 2.515 0  4.800000000000001 2.365 0  4.6 2.815 0  4.775 2.965 0  4.6 2.515 0  4.449999999999999 2.365 0  4.95 3.415 0  5.125 3.565 0  4.95 3.114999999999999 0  6.6125 2.365 0  5.3 1.9275 0  5.3 0.5912500000000001 0  4.95 0.5912500000000001 0  4.95 1.77375 0  4.6 0.5912500000000001 0  4.6 1.77375 0  4.25 0.5848104380198699 0  3.034071214050757 0 0  6.83125 4.465 0  5.211822570533285 3.116161307657225 0  5.199644089736418 3.708365586090832 0  5.560234206003997 2.013312058743169 0  5.3 1.555 0  4.3375 1.77375 0  3.71875 0.295625 0  7.05 4.520907405620923 0  5.3 3.139999999999999 0  5.3 3.739999999999999 0  5.7375 2.365 0  5.080778633500479 1.481310090775334 0  4.25 1.76731043801987 0  3.642035607025378 0 0  4.95 1.478125 0  4.73077863350048 1.481310090775334 0  4.6 1.478125 0  4.38125 1.478125 0  4.25 1.468465657029805 0  1.0625 1.77375 0  0 1.1825 0  1.215928785949243 2.365 0  0.9090712140507571 0 0  3.340928785949243 2.365 0  5.3 6.353185188758156 0  5.7375 6.465 0  1.251926214046421 0.8638539258762323 0  2.998073785953579 1.501146074123768 0  6.6125 0.5912500000000001 0  6.314484661954626 0 0  7.05 0.7355153380453735 0  6.175 7.265 0  7.05 6.576814811241844 0  1.823893178923864 2.365 0  1.59375 1.478125 0  0 0.5912500000000001 0  2.426106821076136 0 0  2.65625 0.8868750000000001 0  5.3 4.753185188758156 0  6.384382461419411 6.63086506016126 0  5.965647764605047 4.698780141966616 0  5.95625 0.5512968727055005 0  3.573985453476257 1.146376094877751 0  0.6756920837505003 1.21855677338705 0  0 1.77375 0  0.5312499999999999 2.069375 0  0.6079643929746215 2.365 0  6.446593558696915 1.754199000482114 0  3.610596224419451 1.784975253492358 0  0.6394873570286449 0.5799959292452963 0  2.417022476128119 1.737785075476752 0  1.83297752387188 0.6272149245232482 0  6.39375 5.265000000000001 0  7.05 5.432722216862766 0  5.95625 6.065 0  5.3 5.897277783137234 0  1.363606821076136 0 0  2.886393178923864 2.365 0  5.807242330977314 0 0  5.66317075542392 5.097277783137233 0  6.531608295550142 6.093321366176391 0  6.39375 0.8868750000000001 0  7.05 1.10327300706806 0  1.519910982436554 1.97058461431516 0  2.730089017563446 0.3944153856848401 0  3.118321402239236 1.051513924837064 0  1.080031360230293 0.4321124510033665 0  1.131373342792352 1.313422525825128 0  3.170050834191505 1.932854926851105 0  2.299923182630591 0.5816821397526466 0  1.950076817369409 1.783317860247354 0  6.613181962233742 1.324697214951463 0  6.6125 7.265 0  7.05 6.920907405620921 0  5.51875 6.865 0  5.3 6.809092594379077 0  5.983458173428153 6.850120530156478 0  5.7375 0.9806135633003248 0  3.795464392974622 2.365 0  0.4545356070253785 0 0  5.707817604026098 5.669324080326772 0  6.382560485385842 4.479437374820383 0  7.05 1.918015338045373 0  2.588389785493746 1.326880192167154 0  1.703300758037187 1.049840817825812 0  3.81583399465085 0.749837075035683 0  0.3530001285220923 0.9165457830971103 0  5.7375 7.265 0  0.3230327290960819 1.478125 0  6.645222772803423 5.648779777756588 0  5.3 4.409092594379079 0  0.6966084743942642 1.616326964752643 0  5.95625 2.0342218763767 0  1.49184819442877 0.3932638652425394 0  2.659125375411175 2.045841681839123 0  5.614524271201718 0.3478746969228768 0  5.999107992102964 5.308994605056308 0  2.127875375411175 2.365 0  2.037600823622477 0.3085922016883884 0  3.93649851739085 2.000575559990484 0  3.906455196942886 1.319043266534772 0  0 0.295625 0  0.9119465894619322 2.365 0  0.7968749999999998 1.9215625 0  3.338053410538068 0 0  3.453125 0.4434374999999999 0  7.05 0.3677576690226868 0  6.83125 0.295625 0  6.682242330977314 0 0  6.668949774591622 6.886595444085661 0  5.68188834913787 4.441195406600733 0  6.758701711409929 5.204768514052305 0  5.59129828859007 6.125231485947695 0  6.163759209134029 4.993941590579597 0  6.233034970219983 6.300479647380988 0  6.703009859999504 6.429199314158878 0  5.609311330585206 1.36875 0  0.3587822425707757 0.3500213638980786 0  6.721382088515962 0.9965688100980222 0  2.209060623332511 2.022170427178749 0  5.3 5.097277783137233 0  7.05 6.232722216862767 0  6.059295437662608 4.370887739173418 0  0.8690637789301248 0.8872863262959064 0  3.466735784094473 0.8089436482612071 0  3.295985566969465 1.339922954220738 0  6.39375 2.096484771253884 0  6.711845829197576 1.970371788042478 0  6.060173353037894 0.8687877612331139 0  6.301258297484685 6.955053672984521 0  6.754921001691115 1.626730465232963 0  6.49836349646597 0.2780484381883498 0  6.284029928285962 0.5769414109938407 0  6.06086349646597 0 0  5.643646453505415 4.768412579276713 0  5.655197341664164 0.6682895817033545 0  2.872957907069126 1.801096788690002 0  4.6 0.295625 0  4.906721366499522 0.2924399092246666 0  4.55672136649952 0.2924399092246666 0  4.95 0.295625 0  3.568196589461933 2.1179624530524 0  3.620056836640555 1.464083854703579 0  3.927107481851438 1.660653323618258 0  0.7896275243076972 0.2971318722880981 0  6.12561317803929 1.761463214735561 0  6.326880341955087 1.460708780209755 0  1.429466162327612 1.207949778943681 0  2.296927843562433 1.446513085688053 0  1.980950224264427 0.9038259360937273 0  1.52702416133256 0.7076527164671081 0  0.4258514322303463 1.77420426839212 0  1.859375 1.3303125 0  2.390625 1.0346875 0  5.3 0.8868750000000001 0  5.169221366499521 0.8836899092246666 0  4.95 0.8868750000000001 0  4.819221366499521 0.8836899092246666 0  4.6 0.8868750000000001 0  4.46922136649952 0.8836899092246666 0  4.25 0.8772156570298049 0  6.140746550782823 0.3007326298726944 0  6.83125 3.565 0  7.05 3.265 0  6.83966663645357 3.625095246727552 0  7.05 2.665 0  1.214780807536237 2.049765590706595 0  3.186062312294412 0.276090769979388 0  4.29375 2.069375 0  4.6 2.069375 0  4.25 2.066155219009935 0  4.643278633500479 2.072560090775334 0  1.328125 1.6259375 0  3.946017803512689 0 0  3.984375 0.1478125 0  2.122124624588825 0 0  2.921875 0.7390625 0  0.3039821964873107 2.365 0  0.2656249999999999 2.2171875 0  1.519910982436554 2.365 0  2.730089017563446 0 0  3.267848714624348 1.643786705677805 0  3.962128140614412 0.4810864575242905 0  6.088735565830333 6.566440677959418 0  2.87287907903055 1.226769242480236 0  5.997734206003997 1.422062058743168 0  2.335585913229898 0.2848909091867997 0  1.915727811171581 2.080394075538645 0  5.3 0.295625 0  5.256721366499521 0.2924399092246666 0  0 1.478125 0  0 0.8868750000000001 0  4.95 2.069375 0  4.993278633500479 2.072560090775334 0  0 2.069375 0  4.25 0.2924052190099349 0  3.841572739148465 1.037556133343355 0  6.247685367118326 6.002851795106343 0  5.596179388183639 5.390271738108119 0  0.361226814135335 0.633338030484755 0  0.390270021626804 1.200123785848559 0  6.341029012534215 4.765551947817491 0  5.555765280690617 2.58528286847223 0  6.818326003308544 6.060675919673228 0  5.628125 6.665 0  5.3 6.581138891568616 0  6.721875 4.665 0  7.05 4.748861108431384 0  2.729013460599041 1.564984855461338 0  1.766005998581615 0.3591878959166037 0  6.83125 7.265 0  5.527503434040016 4.065 0  5.51875 4.0025 0  6.414708980099403 5.79017371349605 0  5.555816552627036 1.629876120346811 0  6.405574324324323 3.185945945945946 0  6.405574324324323 2.585945945945946 0  5.944425675675676 3.344054054054054 0  5.95625 2.965 0  5.944425675675676 2.744054054054054 0  6.83125 2.965 0  6.843074324324323 3.035945945945945 0  0.9539220190930711 1.522188675922875 0  5.875323973896693 0.2985022980005431 0  6.284375 5.465 0  1.28446357176077 0.6008092986991798 0  2.93210457621998 2.068557687752316 0  7.05 2.141507669022687 0  6.420010302120049 4.065 0  6.40216663645357 3.750095246727552 0  6.39375 3.565 0  5.846875 6.265 0  0.2127682824147084 1.9215625 0  0.607699940173331 0.8431476678143333 0  1.270397973338397 0.2479363044321548 0  5.826861590721315 1.225363214864182 0  5.895744270062652 4.959765766084354 0  1.590874624588825 0 0  5.553621165488657 0 0  3.113660982436554 2.365 0  1.050077073521563 0.7053514850398296 0  5.
[...]
<PointData  Vectors="Displacement"> 
<DataArray  type="Float64"  Name="Displacement"  NumberOfComponents="3" format="ascii">7.3551215481362404e-03 5.5853550403114419e-03 0.0000000000000000e+00  4.6714517663660185e-03 8.6423783280477112e-04 0.0000000000000000e+00  8.2805517738255494e-03 1.2852365642054312e-03 0.0000000000000000e+00  3.9210902010371551e-03 2.0034190159837380e-03 0.0000000000000000e+00  4.3877653627523803e-03 6.0635759188871173e-04 0.0000000000000000e+00  3.7075916977797217e-03 1.5981147634703990e-03 0.0000000000000000e+00  3.4512692375134667e-03 2.4962835747448973e-03 0.0000000000000000e+00  3.2820071421080879e-03 1.8823108614588085e-03 0.0000000000000000e+00  4.0318016291989193e-03 3.1825293438057073e-04 0.0000000000000000e+00  3.5313016434943326e-03 1.1194282341135361e-03 0.0000000000000000e+00  3.1981065770584805e-03 1.2896500451714307e-03 0.0000000000000000e+00  2.7948557820408979e-03 2.2030868315459418e-03 0.0000000000000000e+00  2.7830422213193534e-03 1.4577648923999754e-03 0.0000000000000000e+00  3.6723216864039312e-03 8.2571506235221636e-05 0.0000000000000000e+00  3.3678085074830564e-03 6.8780415883848986e-04 0.0000000000000000e+00  3.1580273843345983e-03 7.7215032512139366e-04 0.0000000000000000e+00  2.9116305320981638e-03 8.5533614078910439e-04 0.0000000000000000e+00  2.2880594985207232e-03 1.6424364303638584e-03 0.0000000000000000e+00  2.6697810380026154e-03 9.1830507592958164e-04 0.0000000000000000e+00  2.6870670687928278e-03 0.0000000000000000e+00 0.0000000000000000e+00  2.6172729778165611e-03 0.0000000000000000e+00 0.0000000000000000e+00  2.5335943854784362e-03 0.0000000000000000e+00 0.0000000000000000e+00  2.4227867743244710e-03 0.0000000000000000e+00 0.0000000000000000e+00  2.2872753211457091e-03 0.0000000000000000e+00 0.0000000000000000e+00  0.0000000000000000e+00 1.7654814937662331e-03 0.0000000000000000e+00  0.0000000000000000e+00 0.0000000000000000e+00 0.0000000000000000e+00  5.5784359131790468e-03 2.4136342713313198e-03 0.0000000000000000e+00  4.4843825734829593e-03 1.2262155948191353e-03 0.0000000000000000e+00  3.5507995809155057e-03 1.9893796924487527e-03 0.0000000000000000e+00  4.1830194510474542e-03 9.0531197030123401e-04 0.0000000000000000e+00  3.3255963774756125e-03 9.6103391105522369e-04 0.0000000000000000e+00  3.0130055159260896e-03 1.0860337209496350e-03 0.0000000000000000e+00  3.4274135696188957e-03 1.4606495251402092e-03 0.0000000000000000e+00  2.9704028546470918e-03 1.6851458333688406e-03 0.0000000000000000e+00  3.8472503017478962e-03 5.9598479176617653e-04 0.0000000000000000e+00  2.8447434009947676e-03 8.8548645801737140e-05 0.0000000000000000e+00  2.7195196858432369e-03 7.3293217148882728e-05 0.0000000000000000e+00  2.5623368092963375e-03 6.6004485256061638e-05 0.0000000000000000e+00  2.5884995736610585e-03 1.2022877284685622e-03 0.0000000000000000e+00  3.0332077468384839e-03 7.8498426181734332e-05 0.0000000000000000e+00  1.2656160127806515e-03 2.4555360614594943e-04 0.0000000000000000e+00  5.9467256261214532e-03 1.4270232678305652e-03 0.0000000000000000e+00  4.4529993637735599e-03 3.1650299294975898e-03 0.0000000000000000e+00  4.6276551901643943e-03 1.3629025174446718e-03 0.0000000000000000e+00  4.3502296955455046e-03 1.0753543649183852e-03 0.0000000000000000e+00  3.8062324796752163e-03 1.8478131060382095e-03 0.0000000000000000e+00  3.2828976032066473e-03 2.0617910803906081e-03 0.0000000000000000e+00  4.0151525298452242e-03 7.4476988382901860e-04 0.0000000000000000e+00  3.4655907123486798e-03 9.3205303170549540e-04 0.0000000000000000e+00  3.1804028636709899e-03 1.0216057049530919e-03 0.0000000000000000e+00  2.8166871876824668e-03 1.1485276792734913e-03 0.0000000000000000e+00  3.2134217551579238e-03 1.5712610031669149e-03 0.0000000000000000e+00  3.6275179971291308e-03 1.3889721086043296e-03 0.0000000000000000e+00  2.7025164906808981e-03 1.6947113801993746e-03 0.0000000000000000e+00  3.6776122692920516e-03 4.5833811711653921e-04 0.0000000000000000e+00  2.8958834979220800e-03 9.4370398142063852e-05 0.0000000000000000e+00  2.7862726394517786e-03 8.1128256550409470e-05 0.0000000000000000e+00  2.6446868601874870e-03 6.8315447343589620e-05 0.0000000000000000e+00  2.4702383117007299e-03 6.4767019600928436e-05 0.0000000000000000e+00  2.3469820053088190e-03 1.1212569746705931e-03 0.0000000000000000e+00  3.1582607705117290e-03 -1.2352522206191268e-04 0.0000000000000000e+00  1.5889692125609697e-03 1.6811434657503131e-03 0.0000000000000000e+00  1.0350017439896518e-03 0.0000000000000000e+00 0.0000000000000000e+00  5.1412948968944097e-03 1.5347917401027547e-03 0.0000000000000000e+00  4.5058742001638221e-03 9.0214020261251450e-04 0.0000000000000000e+00  4.0296169572138123e-03 1.2278728961503033e-03 0.0000000000000000e+00  4.2991280057480472e-03 1.5674009488101050e-03 0.0000000000000000e+00  4.1643567813229266e-03 6.0599620663323529e-04 0.0000000000000000e+00  3.7588087776472098e-03 8.4975696054345414e-04 0.0000000000000000e+00  3.2621707330015384e-03 1.1399363899190166e-03 0.0000000000000000e+00  3.1110464024247031e-03 9.0277919992551195e-04 0.0000000000000000e+00  2.8835867572870842e-03 1.2873956126818200e-03 0.0000000000000000e+00  2.7960968064882049e-03 1.0054271551270466e-03 0.0000000000000000e+00  3.3418083858277061e-03 1.6852661941501508e-03 0.0000000000000000e+00  3.1111448304190843e-03 1.4543838286218171e-03 0.0000000000000000e+00  3.8003443864504070e-03 3.4513087913776988e-04 0.0000000000000000e+00  3.2324878381746768e-03 2.4527945013099784e-04 0.0000000000000000e+00  2.6749913404749606e-03 -2.1593582659693725e-05 0.0000000000000000e+00  3.0483504519759367e-03 3.4877844726692353e-04 0.0000000000000000e+00  2.5774639048696500e-03 -4.0922605380115915e-05 0.0000000000000000e+00  2.8845854480553366e-03 3.6055193690664306e-04 0.0000000000000000e+00  2.4518166507038167e-03 -5.7263208114495449e-05 0.0000000000000000e+00  1.8090092958906831e-03 -5.3125827101041889e-05 0.0000000000000000e+00  5.1818977934528845e-03 1.2603508151757066e-03 0.0000000000000000e+00  4.4346616516330491e-03 8.4808749965100229e-04 0.0000000000000000e+00  4.7151474942996631e-03 1.1060751503161668e-03 0.0000000000000000e+00  4.1166438928442409e-03 1.3074018749075001e-03 0.0000000000000000e+00  4.3698961487647703e-03 1.6495150428483343e-03 0.0000000000000000e+00  4.0781782696920239e-03 5.5123251070953220e-04 0.0000000000000000e+00  3.8348625830051425e-03 9.2557870997337093e-04 0.0000000000000000e+00  3.1878838367178719e-03 1.1521948167093037e-03 0.0000000000000000e+00  3.3749325081204071e-03 1.2042357237933869e-03 0.0000000000000000e+00  3.1726307714797070e-03 8.9585155662836669e-04 0.0000000000000000e+00  3.0576610514153088e-03 8.0765050451949653e-04 0.0000000000000000e+00  2.7870357310288397e-03 1.2982420587361329e-03 0.0000000000000000e+00  3.0059987734648739e-03 1.3743184331094472e-03 0.0000000000000000e+00  2.8658796392391594e-03 9.9937242100356610e-04 0.0000000000000000e+00  2.8069857002265696e-03 8.8231064195404003e-04 0.0000000000000000e+00  3.2357000000026543e-03 1.7203515150635178e-03 0.0000000000000000e+00  3.5092223558842979e-03 1.7348912731848833e-03 0.0000000000000000e+00  3.2047532738548089e-03 1.4296707406497948e-03 0.0000000000000000e+00  3.7143994932823787e-03 3.0118991890662781e-04 0.0000000000000000e+00  3.2100829155450278e-03 4.1471528767744991e-04 0.0000000000000000e+00  2.6963276652900727e-03 -1.5929913020509866e-05 0.0000000000000000e+00  2.6057338107993246e-03 -3.5525968944337325e-05 0.0000000000000000e+00  3.0088087957927043e-03 3.4792423657650497e-04 0.0000000000000000e+00  2.4866954281344282e-03 -5.3072254634513930e-05 0.0000000000000000e+00  2.8365708819707140e-03 3.5994369280497495e-04 0.0000000000000000e+00  2.3407093342347205e-03 -6.4782838718566594e-05 0.0000000000000000e+00  1.6979382006747938e-03 0.0000000000000000e+00 0.0000000000000000e+00  4.9241823696042049e-03 1.1880010766536784e-03 0.0000000000000000e+00  3.4889433584224258e-03 1.2833830676985414e-03 0.0000000000000000e+00  3.6262417733429618e-03 1.8141277475704567e-03 0.0000000000000000e+00  3.3385398135091582e-03 4.2999211014585617e-04 0.0000000000000000e+00  3.0531325871661686e-03 2.2990930434542038e-04 0.0000000000000000e+00  2.6829895767429049e-03 3.8284370546763711e-04 0.0000000000000000e+00  2.0574112242708895e-03 -6.3316653091561817e-05 0.0000000000000000e+00  4.9165817330367855e-03 1.0842219588434554e-03 0.0000000000000000e+00  3.5801213831517294e-03 1.2529126507444081e-03 0.0000000000000000e+00  3.7637209013614962e-03 1.7416719230433433e-03 0.0000000000000000e+00  3.5616029267037078e-03 5.8011021313749333e-04 0.0000000000000000e+00  2.9489225003331522e-03 1.9786624063594823e-04 0.0000000000000000e+00  2.6264059611037153e-03 3.9117534794555551e-04 0.0000000000000000e+00  2.0091431386570916e-03 0.0000000000000000e+00 0.0000000000000000e+00  2.8981528700320809e-03 1.9472457321869505e-04 0.0000000000000000e+00  2.8054623859726751e-03 1.9322464064202611e-04 0.0000000000000000e+00  2.7416483955777283e-03 1.9190485254563412e-04 0.0000000000000000e+00  2.6268464448537246e-03 1.9849090575981498e-04 0.0000000000000000e+00  2.5499267114646356e-03 2.0261574300078493e-04 0.0000000000000000e+00  6.6108482552373340e-04 8.5862489695139217e-04 0.0000000000000000e+00  0.0000000000000000e+00 2.7585013659467287e-04 0.0000000000000000e+00  7.7936512896755502e-04 1.7493681219809172e-03 0.0000000000000000e+00  5.2134050366885122e-04 0.0000000000000000e+00 0.0000000000000000e+00  2.2220508480730286e-03 1.5139767965467435e-03 0.0000000000000000e+00  5.5104390280392729e-03 4.3128278909858996e-03 0.0000000000000000e+00  6.2389203318236738e-03 3.7052676755541122e-03 0.0000000000000000e+00  7.3453568620202492e-04 7.4737641600025319e-05 0.0000000000000000e+00  1.8185502588369540e-03 4.3946665114429810e-04 0.0000000000000000e+00  2.7978090599215058e-03 -2.7504273725705845e-05 0.0000000000000000e+00  2.7078084184470551e-03 0.0000000000000000e+00 0.0000000000000000e+00  2.8273234060960596e-03 -1.2978613645820409e-04 0.0000000000000000e+00  8.1976159721852179e-03 3.3833560892855123e-03 0.0000000000000000e+00  6.8999753148494530e-03 1.3910097275761366e-03 0.0000000000000000e+00  1.1786982137154279e-03 1.7275468166248103e-03 0.0000000000000000e+00  9.7269731731329686e-04 5.1626362688930174e-04 0.0000000000000000e+00  0.0000000000000000e+00 -1.2168972838529687e-05 0.0000000000000000e+00  1.3717556881759770e-03 0.0000000000000000e+00 0.0000000000000000e+00  1.5438462287449379e-03 5.2180108204970549e-05 0.0000000000000000e+00  4.0222591804349997e-03 2.4452573850409754e-03 0.0000000000000000e+00  6.9476077495121248e-03 2.6089120361510827e-03 0.0000000000000000e+00  4.7885009697823102e-03 1.9631172311409687e-03 0.0000000000000000e+00  2.7764912239040557e-03 1.8971256281273735e-07 0.0000000000000000e+00  2.0936873436184921e-03 1.0592288126213799e-04 0.0000000000000000e+00  4.0562256656310824e-04 2.9795064273736079e-04 0.0000000000000000e+00  0.0000000000000000e+00 8.6807680784808938e-04 0.0000000000000000e+00  3.3531929342950616e-04 1.2749590628246702e-03 0.0000000000000000e+00  3.8890874210011550e-04 1.7594417314425186e-03 0.0000000000000000e+00  3.3494146192883244e-03 1.6237737221188258e-04 0.0000000000000000e+00  2.2343797217320880e-03 5.9527681087916324e-04 0.0000000000000000e+00  3.7185879932809788e-04 -1.9010492187767819e-05 0.0000000000000000e+00  1.5023131651724065e-03 7.5779993462050379e-04 0.0000000000000000e+00  1.0588798501629186e-03 -1.4004189496292769e-05 0.0000000000000000e+00  5.3470494648607857e-03 1.9337656190128194e-03 0.0000000000000000e+00  5.5088282626425660e-03 1.3751201457371145e-03 0.0000000000000000e+00  5.8653261735483291e-03 2.9949874979211333e-03 0.0000000000000000e+00  4.9011554336944943e-03 3.7128682581911905e-03 0.0000000000000000e+00  7.7951993667510369e-04 0.0000000000000000e+00 0.0000000000000000e+00  1.9038609373280156e-03 1.6208036527483336e-03 0.0000000000000000e+00  2.6875743600754407e-03 0.0000000000000000e+00 0.0000000000000000e+00  4.7122276071883216e-03 2.5193288993293908e-03 0.0000000000000000e+00  6.1829732368738006e-03 2.1459632585145373e-03 0.0000000000000000e+00  2.9070471552690813e-03 1.1350322487472701e-05 0.0000000000000000e+00  2.9777409371298707e-03 -1.4670630790836130e-04 0.0000000000000000e+00  9.5762834094267196e-04 1.1115776490152158e-03 0.0000000000000000e+00  1.5465997065600039e-03 -5.9121981255959908e-05 0.0000000000000000e+00  1.8218462757550935e-03 1.0044133142929577e-04 0.0000000000000000e+00  6.2220080481764769e-04 -4.2243461333430410e-05 0.0000000000000000e+00  6.8267865455316854e-04 3.7157154870968100e-04 0.0000000000000000e+00  2.0004507023400116e-03 8.9284459233996219e-04 0.0000000000000000e+00  1.3191333307328731e-03 -3.1177267992468667e-05 0.0000000000000000e+00  1.2160689387116601e-03 8.4425933616066981e-04 0.0000000000000000e+00  3.1122449862198407e-03 2.5901443264554292e-05 0.0000000000000000e+00  8.3167947175453588e-03 2.3036278841121246e-03 0.0000000000000000e+00  7.5376929035551017e-03 1.3423737772709115e-03 0.0000000000000000e+00  6.7307127743132791e-03 4.5662965416162519e-03 0.0000000000000000e+00  6.3204799737869525e-03 4.9472558883784145e-03 0.0000000000000000e+00  7.1476201752845294e-03 3.5561764213907338e-03 0.0000000000000000e+00  2.9014387612786765e-03 5.5490899919257608e-05 0.0000000000000000e+00  2.5263615336945707e-03 1.3323689162825132e-03 0.0000000000000000e+00  2.6107622471520462e-04 0.0000000000000000e+00 0.0000000000000000e+00  5.2032632153056028e-03 2.9873231334843651e-03 0.0000000000000000e+00  4.8898593887373590e-03 1.5021288714640033e-03 0.0000000000000000e+00  3.4076071098944182e-03 -4.6513488044931013e-05 0.0000000000000000e+00  1.5523953700020028e-03 3.2823959523099207e-04 0.0000000000000000e+00  1.0083594392124807e-03 1.6984699672816726e-04 0.0000000000000000e+00  2.1587444076664711e-03 -4.5261244098814613e-05 0.0000000000000000e+00  2.0892902820996299e-04 1.0692700220252647e-04 0.0000000000000000e+00  7.8833775562708042e-03 4.4898829554367928e-03 0.0000000000000000e+00  1.9678475471368852e-04 5.3150287539613752e-04 0.0000000000000000e+00  5.7186611416259435e-03 1.8363595505113976e-03 0.0000000000000000e+00  3.9044356858997419e-03 2.1525934608546517e-03 0.0000000000000000e+00  4.2792890436239649e-04 6.7638194867265637e-04 0.0000000000000000e+00  3.4538468502242096e-03 3.7267343554852928e-04 0.0000000000000000e+00  8.5677436873825893e-04 -4.6567436671313437e-05 0.0000000000000000e+00  1.6974527963010608e-03 1.1397465442370663e-03 0.0000000000000000e+00  2.6982767644718191e-03 -1.5222477839481036e-05 0.0000000000000000e+00  5.1674937374135308e-03 2.3700855537008314e-03 0.0000000000000000e+00  1.3826934364680409e-03 1.7094204216779642e-03 0.0000000000000000e+00  1.1617146462862202e-03 -5.1386919032666042e-05 0.0000000000000000e+00  2.4731459049841652e-03 7.0795744051929514e-04 0.0000000000000000e+00  2.3153355190153931e-03 1.5895717948099738e-04 0.0000000000000000e+00  0.0000000000000000e+00 -4.2823279016664604e-05 0.0000000000000000e+00  5.8314972242236340e-04 1.7593547503359868e-03 0.0000000000000000e+00  4.9903183010117718e-04 1.0558055661025706e-03 0.0000000000000000e+00  1.8565841359101038e-03 0.0000000000000000e+00 0.0000000000000000e+00  1.9349194827013427e-03 -7.0464041254743215e-05 0.0000000000000000e+00  2.7251820122002283e-03 -7.5575201858968445e-05 0.0000000000000000e+00  2.7201658817579025e-03 -3.5604430450578386e-05 0.0000000000000000e+00  2.7002612845009248e-03 0.0000000000000000e+00 0.0000000000000000e+00  7.4883062645890548e-03 2.1151400233630191e-03 0.0000000000000000e+00  4.4418971437371595e-03 1.9826260849341126e-03 0.0000000000000000e+00  5.3667775044369355e-03 1.5609770178494908e-03 0.0000000000000000e+00  5.5830655569852235e-03 3.5949772122208291e-03 0.0000000000000000e+00  5.0693328830474079e-03 1.9947946518286039e-03 0.0000000000000000e+00  6.3571168099181060e-03 2.7153514661264551e-03 0.0000000000000000e+00  6.6817504446744910e-03 1.9741424246548004e-03 0.0000000000000000e+00  3.0488070071772581e-03 1.5512875780137911e-04 0.0000000000000000e+00  2.0640692018929788e-04 -4.6002149747325425e-05 0.0000000000000000e+00  2.9480759481210770e-03 -3.6382796470545209e-05 0.0000000000000000e+00  1.4033602965878508e-03 1.1499360603489126e-03 0.0000000000000000e+00  4.2033431061429486e-03 2.7856263042999930e-03 0.0000000000000000e+00  6.3723324823113719e-03 1.4217304604972768e-03 0.0000000000000000e+00  4.7041106853153479e-03 1.6647831743236863e-03 0.0000000000000000e+00  5.1119242730693153e-04 8.9857784229279271e-05 0.0000000000000000e+00  1.9823569099549502e-03 -1.9896434345955284e-05 0.0000000000000000e+00  1.9659470077697211e-03 2.6044131363063143e-04 0.0000000000000000e+00  3.5471259566780852e-03 2.8551281208826965e-04 0.0000000000000000e+00  3.4731690327630092e-03 1.3248976650519917e-04 0.0000000000000000e+00  2.8890912231461226e-03 3.2568970967331450e-05 0.0000000000000000e+00  7.5409086531591238e-03 2.9250745799643632e-03 0.0000000000000000e+00  3.2712135781447181e-03 3.2813045845113309e-05 0.0000000000000000e+00  2.7283634269178207e-03 -1.3660818602889797e-05 0.0000000000000000e+00  2.7968410223578677e-03 -2.5837064407316344e-06 0.0000000000000000e+00  2.7039720235183628e-03 0.0000000000000000e+00 0.0000000000000000e+00  4.5164040572932595e-03 2.2575996435911468e-03 0.0000000000000000e+00  2.7804114330894961e-03 6.0536856589042987e-06 0.0000000000000000e+00  1.7930598015385717e-03 7.8065881320597006e-04 0.0000000000000000e+00  2.4406555662596255e-03 -4.9671428234995905e-05 0.0000000000000000e+00  2.5404181137224542e-03 -3.9177000024701345e-05 0.0000000000000000e+00  2.4245790018943411e-03 -5.0548395656404522e-05 0.0000000000000000e+00  2.5531989770091559e-03 -3.7807209975127298e-05 0.0000000000000000e+00  2.2915747035203043e-03 1.0348818124833129e-03 0.0000000000000000e+00  2.1771454435711482e-03 3.0011889253389991e-04 0.0000000000000000e+00  2.3988757815928950e-03 3.8453456489285890e-04 0.0000000000000000e+00  4.5583725304205823e-04 -4.6980501868725412e-05 0.0000000000000000e+00  3.3318539414983485e-03 2.3745005253244299e-04 0.0000000000000000e+00  3.1821313442169014e-03 1.1598892335722331e-04 0.0000000000000000e+00  8.5629790407073159e-04 2.8267958580910889e-04 0.0000000000000000e+00  1.3939356604786824e-03 4.5569552212841428e-04 0.0000000000000000e+00  1.1600976069613359e-03 8.3955567969173136e-05 0.0000000000000000e+00  8.8794560629790512e-04 1.1501456762250170e-05 0.0000000000000000e+00  2.6399899681705754e-04 8.6657053943704234e-04 0.0000000000000000e+00  1.1204005714420080e-03 3.7085639741355668e-04 0.0000000000000000e+00  1.4060680691553471e-03 1.3838418142742470e-04 0.0000000000000000e+00  2.7843685144667146e-03 2.3804066373070219e-05 0.0000000000000000e+00  2.7500097523012316e-03 1.5981789476344184e-05 0.0000000000000000e+00  2.6860558234833884e-03 4.5307100893339048e-06 0.0000000000000000e+00  2.6403577647528906e-03 -3.9980061422522440e-06 0.0000000000000000e+00  2.5572942596876424e-03 -1.3258362418312731e-05 0.0000000000000000e+00  2.5008332677898550e-03 -1.9188093635459436e-05 0.0000000000000000e+00  2.3991616304200750e-03 -2.3950385437951683e-05 0.0000000000000000e+00  2.7311583758616313e-03 -7.7345412455987945e-06 0.0000000000000000e+00  4.4281714388313131e-03 7.2995925634273303e-04 0.0000000000000000e+00  4.2122207278284512e-03 4.5742160183774903e-04 0.0000000000000000e+00  4.4613952911943403e-03 7.5641410840133290e-04 0.0000000000000000e+00  3.8518806682713079e-03 1.9233524610093045e-04 0.0000000000000000e+00  7.6831366738043809e-04 1.2349784112849918e-03 0.0000000000000000e+00  1.7847011636020003e-03 -5.9567244896466551e-05 0.0000000000000000e+00  2.7165095372622271e-03 6.2269017199928923e-04 0.0000000000000000e+00  2.9103918912368322e-03 5.7855680801662478e-04 0.0000000000000000e+00  2.6852910366383931e-03 6.3389127274280244e-04 0.0000000000000000e+00  2.9355694572641275e-03 5.7772290780543003e-04 0.0000000000000000e+00  8.1784864278383325e-04 6.7689333015749197e-04 0.0000000000000000e+00  2.1528095476146415e-03