<?xml version="1.0"?>
<VTKFile type="UnstructuredGrid"  version="0.1"  >
<UnstructuredGrid>
<Piece  NumberOfPoints="1122" NumberOfCells="2077">
<Points>
<DataArray  type="Float64"  NumberOfComponents="3"  format="ascii">5.3 7.265 0  7.05 4.065 0  7.05 7.265 0  5.3 4.065 0  7.05 3.565 0  5.3 3.565 0  4.95 4.065 0  4.95 3.565 0  7.05 2.965 0  5.3 2.965 0  4.95 2.965 0  4.6 3.565 0  4.6 2.965 0  7.05 2.365 0  5.3 2.365 0  4.95 2.365 0  4.6 2.365 0  4.25 2.965 0  4.25 2.365 0  7.05 0 0  5.3 0 0  4.95 0 0  4.6 0 0  4.25 0 0  0 2.365 0  0 0 0  6.175 5.665 0  6.175 3.815 0  5.125 3.815 0  6.175 3.265 0  5.125 2.665 0  4.775 2.665 0  5.125 3.265 0  4.775 3.265 0  6.175 2.665 0  5.125 1.1825 0  4.775 1.1825 0  4.425 1.1825 0  4.425 2.665 0  6.175 1.1825 0  2.125 1.1825 0  7.05 5.888629622483688 0  5.3 5.441370377516312 0  6.210013736160064 4.065 0  6.175 3.565 0  5.3 3.870163890393343 0  4.95 3.759836109606658 0  6.175 2.965 0  5.3 2.712311099736245 0  4.95 2.665 0  4.6 2.665 0  4.95 3.265 0  5.3 3.312311099736244 0  4.6 3.217688900263754 0  6.175 2.365 0  5.3 1.1825 0  4.95 1.1825 0  4.6 1.1825 0  4.25 1.16962087603974 0  4.25 2.617688900263755 0  7.05 1.471030676090747 0  2.431857571898486 2.365 0  1.818142428101514 0 0  6.6125 4.865 0  6.629333272907139 3.685190493455103 0  5.713851351351352 3.423108108108108 0  5.7375 3.94 0  6.636148648648648 3.106891891891892 0  5.713851351351352 2.823108108108108 0  5.025580653828612 2.835433164865235 0  4.874419346171388 2.494566835134765 0  4.675580653828613 2.835433164865235 0  4.524419346171387 2.494566835134765 0  5.025580653828612 3.435433164865235 0  4.874419346171388 3.094566835134765 0  6.636148648648648 2.506891891891892 0  5.820468412007996 1.661624117486337 0  5.213442732999042 0.5848798184493331 0  5.036557267000958 1.780120181550667 0  4.863442732999042 0.5848798184493331 0  4.686557267000959 1.780120181550667 0  4.513442732999041 0.5848798184493331 0  3.1875 0.5912499999999999 0  7.05 4.976814811241844 0  6.6125 3.565 0  6.630006868080033 4.065 0  5.7375 3.565 0  5.755006868080033 4.065 0  6.6125 2.965 0  5.7375 2.965 0  4.95 2.815 0  5.125 2.965 0  4.95 2.515 0  4.800000000000001 2.365 0  4.6 2.815 0  4.775 2.965 0  4.6 2.515 0  4.449999999999999 2.365 0  4.95 3.415 0  5.125 3.565 0  4.95 3.114999999999999 0  6.6125 2.365 0  5.3 1.9275 0  5.3 0.5912500000000001 0  4.95 0.5912500000000001 0  4.95 1.77375 0  4.6 0.5912500000000001 0  4.6 1.77375 0  4.25 0.5848104380198699 0  3.034071214050757 0 0  6.83125 4.465 0  5.211822570533285 3.116161307657225 0  5.199644089736418 3.708365586090832 0  5.560234206003997 2.013312058743169 0  5.3 1.555 0  4.3375 1.77375 0  3.71875 0.295625 0  7.05 4.520907405620923 0  5.3 3.139999999999999 0  5.3 3.739999999999999 0  5.7375 2.365 0  5.080778633500479 1.481310090775334 0  4.25 1.76731043801987 0  3.642035607025378 0 0  4.95 1.478125 0  4.73077863350048 1.481310090775334 0  4.6 1.478125 0  4.38125 1.478125 0  4.25 1.468465657029805 0  1.0625 1.77375 0  0 1.1825 0  1.215928785949243 2.365 0  0.9090712140507571 0 0  3.340928785949243 2.365 0  5.3 6.353185188758156 0  5.7375 6.465 0  1.251926214046421 0.8638539258762323 0  2.998073785953579 1.501146074123768 0  6.6125 0.5912500000000001 0  6.314484661954626 0 0  7.05 0.7355153380453735 0  6.175 7.265 0  7.05 6.576814811241844 0  1.823893178923864 2.365 0  1.59375 1.478125 0  0 0.5912500000000001 0  2.426106821076136 0 0  2.65625 0.8868750000000001 0  5.3 4.753185188758156 0  6.384382461419411 6.63086506016126 0  5.965647764605047 4.698780141966616 0  5.95625 0.5512968727055005 0  3.573985453476257 1.146376094877751 0  0.6756920837505003 1.21855677338705 0  0 1.77375 0  0.5312499999999999 2.069375 0  0.6079643929746215 2.365 0  6.446593558696915 1.754199000482114 0  3.610596224419451 1.784975253492358 0  0.6394873570286449 0.5799959292452963 0  2.417022476128119 1.737785075476752 0  1.83297752387188 0.6272149245232482 0  6.39375 5.265000000000001 0  7.05 5.432722216862766 0  5.95625 6.065 0  5.3 5.897277783137234 0  1.363606821076136 0 0  2.886393178923864 2.365 0  5.807242330977314 0 0  5.66317075542392 5.097277783137233 0  6.531608295550142 6.093321366176391 0  6.39375 0.8868750000000001 0  7.05 1.10327300706806 0  1.519910982436554 1.97058461431516 0  2.730089017563446 0.3944153856848401 0  3.118321402239236 1.051513924837064 0  1.080031360230293 0.4321124510033665 0  1.131373342792352 1.313422525825128 0  3.170050834191505 1.932854926851105 0  2.299923182630591 0.5816821397526466 0  1.950076817369409 1.783317860247354 0  6.613181962233742 1.324697214951463 0  6.6125 7.265 0  7.05 6.920907405620921 0  5.51875 6.865 0  5.3 6.809092594379077 0  5.983458173428153 6.850120530156478 0  5.7375 0.9806135633003248 0  3.795464392974622 2.365 0  0.4545356070253785 0 0  5.707817604026098 5.669324080326772 0  6.382560485385842 4.479437374820383 0  7.05 1.918015338045373 0  2.588389785493746 1.326880192167154 0  1.703300758037187 1.049840817825812 0  3.81583399465085 0.749837075035683 0  0.3530001285220923 0.9165457830971103 0  5.7375 7.265 0  0.3230327290960819 1.478125 0  6.645222772803423 5.648779777756588 0  5.3 4.409092594379079 0  0.6966084743942642 1.616326964752643 0  5.95625 2.0342218763767 0  1.49184819442877 0.3932638652425394 0  2.659125375411175 2.045841681839123 0  5.614524271201718 0.3478746969228768 0  5.999107992102964 5.308994605056308 0  2.127875375411175 2.365 0  2.037600823622477 0.3085922016883884 0  3.93649851739085 2.000575559990484 0  3.906455196942886 1.319043266534772 0  0 0.295625 0  0.9119465894619322 2.365 0  0.7968749999999998 1.9215625 0  3.338053410538068 0 0  3.453125 0.4434374999999999 0  7.05 0.3677576690226868 0  6.83125 0.295625 0  6.682242330977314 0 0  6.668949774591622 6.886595444085661 0  5.68188834913787 4.441195406600733 0  6.758701711409929 5.204768514052305 0  5.59129828859007 6.125231485947695 0  6.163759209134029 4.993941590579597 0  6.233034970219983 6.300479647380988 0  6.703009859999504 6.429199314158878 0  5.609311330585206 1.36875 0  0.3587822425707757 0.3500213638980786 0  6.721382088515962 0.9965688100980222 0  2.209060623332511 2.022170427178749 0  5.3 5.097277783137233 0  7.05 6.232722216862767 0  6.059295437662608 4.370887739173418 0  0.8690637789301248 0.8872863262959064 0  3.466735784094473 0.8089436482612071 0  3.295985566969465 1.339922954220738 0  6.39375 2.096484771253884 0  6.711845829197576 1.970371788042478 0  6.060173353037894 0.8687877612331139 0  6.301258297484685 6.955053672984521 0  6.754921001691115 1.626730465232963 0  6.49836349646597 0.2780484381883498 0  6.284029928285962 0.5769414109938407 0  6.06086349646597 0 0  5.643646453505415 4.768412579276713 0  5.655197341664164 0.6682895817033545 0  2.872957907069126 1.801096788690002 0  4.6 0.295625 0  4.906721366499522 0.2924399092246666 0  4.55672136649952 0.2924399092246666 0  4.95 0.295625 0  3.568196589461933 2.1179624530524 0  3.620056836640555 1.464083854703579 0  3.927107481851438 1.660653323618258 0  0.7896275243076972 0.2971318722880981 0  6.12561317803929 1.761463214735561 0  6.326880341955087 1.460708780209755 0  1.429466162327612 1.207949778943681 0  2.296927843562433 1.446513085688053 0  1.980950224264427 0.9038259360937273 0  1.52702416133256 0.7076527164671081 0  0.4258514322303463 1.77420426839212 0  1.859375 1.3303125 0  2.390625 1.0346875 0  5.3 0.8868750000000001 0  5.169221366499521 0.8836899092246666 0  4.95 0.8868750000000001 0  4.819221366499521 0.8836899092246666 0  4.6 0.8868750000000001 0  4.46922136649952 0.8836899092246666 0  4.25 0.8772156570298049 0  6.140746550782823 0.3007326298726944 0  6.83125 3.565 0  7.05 3.265 0  6.83966663645357 3.625095246727552 0  7.05 2.665 0  1.214780807536237 2.049765590706595 0  3.186062312294412 0.276090769979388 0  4.29375 2.069375 0  4.6 2.069375 0  4.25 2.066155219009935 0  4.643278633500479 2.072560090775334 0  1.328125 1.6259375 0  3.946017803512689 0 0  3.984375 0.1478125 0  2.122124624588825 0 0  2.921875 0.7390625 0  0.3039821964873107 2.365 0  0.2656249999999999 2.2171875 0  1.519910982436554 2.365 0  2.730089017563446 0 0  3.267848714624348 1.643786705677805 0  3.962128140614412 0.4810864575242905 0  6.088735565830333 6.566440677959418 0  2.87287907903055 1.226769242480236 0  5.997734206003997 1.422062058743168 0  2.335585913229898 0.2848909091867997 0  1.915727811171581 2.080394075538645 0  5.3 0.295625 0  5.256721366499521 0.2924399092246666 0  0 1.478125 0  0 0.8868750000000001 0  4.95 2.069375 0  4.993278633500479 2.072560090775334 0  0 2.069375 0  4.25 0.2924052190099349 0  3.841572739148465 1.037556133343355 0  6.247685367118326 6.002851795106343 0  5.596179388183639 5.390271738108119 0  0.361226814135335 0.633338030484755 0  0.390270021626804 1.200123785848559 0  6.341029012534215 4.765551947817491 0  5.555765280690617 2.58528286847223 0  6.818326003308544 6.060675919673228 0  5.628125 6.665 0  5.3 6.581138891568616 0  6.721875 4.665 0  7.05 4.748861108431384 0  2.729013460599041 1.564984855461338 0  1.766005998581615 0.3591878959166037 0  6.83125 7.265 0  5.527503434040016 4.065 0  5.51875 4.0025 0  6.414708980099403 5.79017371349605 0  5.555816552627036 1.629876120346811 0  6.405574324324323 3.185945945945946 0  6.405574324324323 2.585945945945946 0  5.944425675675676 3.344054054054054 0  5.95625 2.965 0  5.944425675675676 2.744054054054054 0  6.83125 2.965 0  6.843074324324323 3.035945945945945 0  0.9539220190930711 1.522188675922875 0  5.875323973896693 0.2985022980005431 0  6.284375 5.465 0  1.28446357176077 0.6008092986991798 0  2.93210457621998 2.068557687752316 0  7.05 2.141507669022687 0  6.420010302120049 4.065 0  6.40216663645357 3.750095246727552 0  6.39375 3.565 0  5.846875 6.265 0  0.2127682824147084 1.9215625 0  0.607699940173331 0.8431476678143333 0  1.270397973338397 0.2479363044321548 0  5.826861590721315 1.225363214864182 0  5.895744270062652 4.959765766084354 0  1.590874624588825 0 0  5.553621165488657 0 0  3.113660982436554 2.365 0  1.050077073521563 0.7053514850398296 0  5.
[...]
<PointData  Scalars="temperature"> 
<DataArray  type="Float64"  Name="temperature"  format="ascii">1.7261757391717276e+03  3.1600807251873994e+02  3.1646934510712714e+02  1.6769707771181443e+03  3.1573879112647199e+02  1.4231556411215622e+03  1.7697250953959083e+03  1.7002155339419312e+03  3.1529968420348172e+02  1.2202295419737200e+03  1.4335097050415418e+03  1.7708132702285920e+03  1.6981185988453533e+03  3.1478610024593019e+02  1.0265311776007547e+03  1.1982482085146837e+03  1.3903855560042091e+03  1.7706109924706832e+03  1.6727447728260258e+03  3.1298443871099965e+02  3.1439174001583609e+02  3.1467549532872903e+02  3.1494801708258143e+02  3.1520370300009455e+02  1.7425431513188810e+03  3.1598767529429404e+02  9.6554656628643932e+02  8.5995608954305385e+02  1.6326200690810542e+03  7.8125957790336042e+02  1.2189563706734532e+03  1.4222211854064496e+03  1.4315686585778822e+03  1.6430137543848780e+03  6.9123866511649339e+02  6.8722247655175192e+02  7.5829487869551303e+02  8.2475232761697544e+02  1.6318070533971922e+03  4.7451623978257425e+02  1.0111000640284915e+03  3.1646417846496951e+02  1.7254663533715627e+03  8.6538732249630721e+02  8.2517826893092763e+02  1.5448937406681355e+03  1.7398479412063250e+03  7.3623707059609524e+02  1.1390170939924965e+03  1.3179114672021246e+03  1.5287103644956583e+03  1.5424135339657826e+03  1.3344160804935152e+03  1.7394120036577117e+03  6.4638298757601626e+02  6.5038360862732202e+02  7.2271989122343587e+02  7.9207853681744609e+02  8.4812128926796629e+02  1.7357557867400362e+03  3.1411870063763206e+02  1.7410902542998715e+03  3.1593254814231676e+02  6.1906815014306517e+02  5.5802443671798574e+02  1.0956633949719642e+03  1.2066558383660172e+03  5.1696355598279706e+02  9.4939692690930008e+02  1.3387059818159285e+03  1.2919302406059539e+03  1.5631501991396742e+03  1.5013560275988932e+03  1.5676701740665605e+03  1.5288420858485244e+03  4.7628483457208881e+02  6.4356050009282160e+02  4.8541544900117435e+02  9.2602011449843098e+02  5.1906869223342892e+02  1.0469740391673363e+03  5.5071467989507880e+02  6.3594948027296027e+02  3.1637539916463561e+02  5.5993611877378510e+02  5.7846709876675129e+02  1.1144039053589495e+03  1.2183112513607198e+03  5.1833259218036631e+02  9.7022338043350794e+02  1.3770271399080871e+03  1.3246934799782168e+03  1.2582506086869505e+03  1.2765688279616231e+03  1.5999657592252811e+03  1.5510041561756573e+03  1.4622809508684409e+03  1.4881769860696702e+03  1.6063583697880508e+03  1.5505863309907909e+03  1.4875932516209941e+03  4.7500700474374662e+02  8.8416280387869972e+02  4.7867190543682602e+02  5.1299587962201554e+02  9.5321793313115927e+02  5.4562843694771755e+02  1.0731024903182583e+03  5.7218357902155208e+02  3.1571713784278666e+02  4.5911017166551204e+02  1.3234975818266880e+03  1.5448950797464174e+03  8.1335614992916624e+02  7.6538415903473776e+02  1.1576703402585699e+03  4.6230536615460551e+02  3.1625509171229288e+02  1.2765241771591823e+03  1.4874726339936001e+03  8.2943799716620504e+02  8.0143860014750032e+02  1.1787297407323924e+03  3.1547399712389756e+02  8.3518557123488222e+02  8.9495851913146009e+02  9.2706045290187092e+02  9.8063044660212688e+02  1.0043481913345427e+03  1.3809123942662225e+03  1.0249170613181454e+03  1.7423244666462213e+03  3.1597708950095750e+02  1.7372032407148736e+03  1.7261828221345640e+03  1.3332016552076775e+03  8.2987959352519965e+02  1.1763282654040463e+03  3.5226579915195919e+02  3.1354877399164315e+02  3.1352961435847629e+02  9.7051552026444688e+02  3.1649121760182101e+02  1.7419076699471518e+03  1.1974748662161101e+03  6.6957733846503891e+02  3.1587226937323254e+02  8.2244695451536836e+02  1.7234346132288231e+03  8.0547569582772201e+02  1.1099701359029434e+03  4.0741273534833363e+02  9.2107457911285701e+02  1.0456879817978340e+03  1.3827934963400428e+03  1.5622511922682672e+03  1.7424980457542249e+03  4.7812537858457023e+02  1.3108234524438039e+03  6.6223998739282797e+02  1.3445735528838586e+03  6.8458247535124599e+02  7.8926923851955894e+02  3.1644328789220998e+02  1.1466326056077194e+03  1.7259730297092642e+03  3.1595947723224265e+02  1.7398285365715233e+03  3.1395659371507963e+02  1.3870930755982854e+03  6.9185881715513972e+02  4.0235391693635461e+02  3.1378550880196701e+02  1.4992143550869023e+03  5.3773537261066986e+02  8.9930766028667506e+02  5.7293659865531072e+02  1.1010766908469441e+03  1.4442530103416004e+03  6.5223911460159366e+02  1.3804183514434994e+03  4.0145909327174161e+02  6.3256349697254598e+02  3.1648222208091954e+02  1.5262704218262058e+03  1.7262980269836983e+03  1.1262754771598420e+03  5.1755428844003745e+02  1.7311590364474785e+03  3.1598554033878446e+02  1.3554374817652174e+03  7.7173319494003442e+02  3.1443909663589216e+02  1.0865666750848316e+03  9.3759759900268159e+02  6.8590531150419145e+02  8.6453807786785217e+02  1.3340565254842518e+03  1.2033188856239301e+03  6.0490091256276537e+02  1.7197446417709471e+03  1.2863669483353583e+03  6.7385621053226225e+02  5.4843622437962404e+02  1.5342753230451128e+03  3.9211772454251548e+02  1.1033520124063321e+03  1.7416055546170537e+03  4.9572998235555400e+02  1.4169595610491267e+03  9.8076544333405877e+02  4.9265760292149162e+02  1.7424278830798632e+03  1.4717666143570566e+03  3.1564250498308991e+02  5.4668234355961727e+02  3.1329840088457365e+02  3.2272388063458948e+02  3.1327161337007061e+02  5.9053629323790994e+02  1.3373456414679119e+03  5.1942007691004790e+02  1.4606376303644188e+03  9.6196641278258346e+02  9.2316244838695718e+02  5.6503128770637204e+02  6.3228324314076326e+02  5.2505734596447974e+02  3.6271683147226730e+02  1.5258375212166700e+03  1.7247898248098759e+03  3.1648998684683835e+02  1.0095720756032155e+03  8.4573445026901243e+02  7.4142460014196138e+02  1.0584526521529679e+03  5.3018958164243224e+02  4.1632787304851018e+02  4.4708707312768070e+02  8.7047785446524165e+02  3.8670732675151004e+02  3.3663935328722852e+02  3.8090911709577711e+02  3.1376461144558868e+02  1.3945935886336008e+03  4.6073802169000805e+02  1.3713678499728915e+03  4.2932143630759089e+02  4.1415470662660795e+02  4.3004183017838193e+02  4.1309353815734107e+02  1.5498222496406804e+03  1.1037380570873231e+03  1.1824737897933912e+03  4.9305082694995906e+02  5.7188594656369241e+02  4.7782618636908671e+02  1.0353436611989871e+03  1.1675827030316348e+03  8.4680694039227683e+02  7.3484292292448924e+02  1.3827797706287524e+03  1.1046325448268051e+03  9.1686385488094049e+02  5.6331430657596832e+02  5.8220785177006735e+02  6.1577037445077133e+02  6.3383431448570241e+02  6.6585286067558548e+02  6.8216284860008693e+02  7.0635004213624768e+02  3.5581622330521157e+02  4.3582915398550966e+02  3.1547875230616785e+02  4.3289099172884823e+02  3.1508120819503745e+02  1.5490151734064011e+03  4.6428126640160622e+02  1.3703910000280771e+03  1.2310425217172299e+03  1.3849765478187285e+03  1.2130857651776246e+03  1.2894893193809205e+03  3.1533499741910271e+02  3.8460541309605071e+02  3.1590760493462977e+02  7.2835492384436952e+02  1.7425318884255257e+03  1.6524661651196384e+03  1.7421681525445979e+03  3.1579954186077879e+02  1.2492745407801604e+03  5.4281964563341182e+02  1.0395452738802881e+03  1.0152232809664772e+03  5.5078501666193370e+02  4.7984126680805241e+02  1.5647207662081298e+03  3.9608319180575836e+02  3.9735220777432420e+02  1.2035433105052809e+03  8.4696736138492622e+02  1.0755613086401438e+03  1.0585560717534190e+03  1.5625312406134356e+03  4.4255102921204633e+02  8.3409887034405483e+02  9.1029289017148767e+02  1.4517746884188057e+03  6.9458835868319375e+02  1.0352108832806666e+03  8.1614275342176006e+02  9.6930500768457193e+02  4.8066295480667463e+02  1.4287266559275547e+03  1.7262705560816087e+03  5.3749841470243882e+02  3.1630180630152802e+02  1.2279619115410819e+03  5.2696611401764687e+02  4.7193293750920435e+02  1.4239968815915765e+03  1.4132395799513183e+03  7.7932092339081930e+02  7.1346699662698427e+02  6.4310409578199653e+02  5.7858126553560032e+02  9.3133789976970377e+02  8.5117393769339685e+02  8.1461360988780609e+02  4.1526658100922657e+02  4.1201433968646523e+02  1.2283964595046757e+03  3.6803087861582122e+02  8.7668797689758878e+02  6.7262234147530069e+02  1.5428878155663722e+03  3.1459683373428976e+02  7.1811973260844763e+02  7.0296351902269123e+02  6.8987467464811652e+02  1.2392464773118459e+03  1.4725290000416680e+03  8.1998279332378365e+02  4.6298164953627764e+02  5.5168971367773679e+02  1.1807960116306149e+03  3.1594764233441975e+02  3.1417893465955410e+02  1.7389151949031832e+03  7.3607979961129013e+02  9.6663278073807885e+02  1.0248301902912951e+03  1.0347371130393876e+03  1.1226378068899855e+03  3.1598649624643582e+02  1.0000207169251763e+03  3.1588238638067907e+02  4.4598106631410224e+02  1.3579980050092206e+03  1.6161406774415598e+03  6.7880508450333195e+02  5.8844447420797280e+02  4.2774252324723602e+02  4.8607118240207319e+02  4.5431092800993366e+02  1.5411781136799136e+03  3.9402246875282509e+02  3.9204075828645637e+02  3.3498711243122051e+02  3.1339700503149191e+02  4.8946835254059198e+02  8.6966135900188067e+02  3.5326678809821669e+02  4.3560331613077574e+02  1.2679166509476568e+03  1.2543640506970237e+03  4.4488656089233297e+02  3.8501831661544668e+02  3.1616774050118858e+02  8.9046603599949299e+02  7.3391965491777194e+02  1.3056523032862706e+03  6.6002168042410915e+02  1.1485960845400302e+03  1.3186382252405040e+03  1.6220421348647440e+03  4.1725917229236001e+02  5.7134654895841743e+02  1.7289345803535095e+03  1.7240189054903271e+03  6.3211445268698208e+02  9.3903422920486253e+02  1.3249718484653813e+03  1.0555274678981918e+03  3.1646566877354070e+02  4.8012201057643324e+02  1.5648463850207272e+03  7.7240779019415993e+02  5.9473221387452281e+02  7.1092770220394323e+02  1.1559962057287544e+03  1.7259192381653600e+03  1.5164794117304712e+03  7.0304671706988051e+02  9.5951603473415162e+02  7.6823774714495778e+02  8.6992323184990198e+02  1.5659514015286577e+03  1.3722204339580005e+03  6.2454165516201431e+02  3.1597010722474982e+02  4.4177599508698603e+02  6.4267421566454675e+02  8.3007327531772535e+02  1.2503155918764905e+03  1.1832125238031531e+03  4.3792008552613305e+02  3.4161697388740163e+02  1.3860185139523815e+03  4.3391031543539816e+02  6.3369865672801757e+02  4.5585830999475820e+02  1.0362197845020557e+03  1.2164098731912343e+03  1.7264628464114310e+03  1.6252877321538942e+03  1.7261870508164820e+03  3.1640450745383492e+02  1.7353844044788718e+03  3.1598060739750389e+02  1.7406190553460960e+03  4.5455747270564206e+02  1.5389648459742032e+03  4.5424413023472727e+02  1.5868488407834718e+03  8.4228607441806935e+02  4.4563187844302036e+02  3.1423056041746281e+02  1.2163083494678538e+03  9.5626305466317717e+02  6.2548076326986745e+02  7.3671459944232220e+02  9.4877413615250600e+02  9.7470970713849340e+02  1.0671183845469095e+03  8.0249296946678692e+02  9.3576487367772961e+02  6.1540918488518059e+02  7.7668147984501911e+02  4.7002788420386395e+02  7.9867244699923833e+02  7.0932716094920875e+02  7.8147856061270488e+02  7.5361091290585603e+02  1.4278575709663367e+03  1.6449953190028784e+03  1.0294015779631377e+03  1.1140742908812513e+03  1.3271237094405583e+03  1.1430842308151412e+03  1.2938508078001732e+03  1.0799177660634346e+03  1.0932504836742105e+03  7.2326402360179770e+02  5.5949223880699810e+02  9.1427659725891965e+02  9.5543117611736807e+02  9.2630466941343900e+02  1.5261383321827864e+03  6.1073489117655004e+02  6.0510509487818445e+02  9.5021980360643693e+02  8.5997944661692043e+02  5.5182148776662405e+02  1.1518655958896097e+03  1.1632709217192207e+03  6.0492889543249942e+02  8.6549574935220710e+02  5.4185378028906177e+02  3.7461055695963023e+02  3.1367524555398791e+02  4.9538549070445981e+02  1.3007125400194159e+03  6.4725495454916268e+02  3.1478567536162234e+02  3.1450778145953183e+02  3.1502667246961352e+02  9.6403578321053851e+02  1.4860310424984525e+03  3.5892936216967581e+02  9.4365158917950566e+02  5.0136760742864408e+02  1.5541306861624332e+03  5.1947575317437349e+02  3.6587425244465544e+02  4.2361939996250146e+02  6.2911917640279012e+02  1.1095700213508560e+03  1.1196302660564879e+03  1.0826806779792521e+03  1.7147747613051556e+03  1.4777810081437960e+03  4.2423580616870254e+02  1.1630018815728142e+03  5.5163860698597944e+02  1.2852178204619033e+03  1.2053906371014534e+03  1.5365516679085017e+03  3.1652891965417268e+02  3.9940749205583876e+02  7.3680711084725885e+02  6.3183816345760351e+02  1.5189765975839146e+03  4.1408471315966449e+02  1.5170570969868379e+03  4.6351742749894555e+02  6.8275869632364231e+02  1.2646535125161313e+03  1.3399898566122440e+03  4.3725761151923905e+02  4.4081777954516616e+02  4.4239191336785541e+02  4.0766170685583000e+02  3.5095246960257873e+02  9.4310828532037942e+02  7.3909150792462958e+02  7.7112532613606822e+02  6.4311659021900721e+02  1.0345946767203009e+03  1.5973858940797140e+03  1.1492497860730052e+03  1.2583460195024400e+03  1.2765279692359525e+03  4.8958781666366031e+02  4.8701199540202532e+02  8.2502906279841579e+02  7.8662907530664040e+02  9.2447894044098393e+02  5.9860595061859919e+02  1.6305079262285785e+03  1.1280775000200024e+03  1.1506112885566195e+03  1.5825847164834320e+03  1.3179917232350092e+03  1.2684823525814620e+03  3.6163170561404871e+02  6.3672992596507947e+02  1.3352812240002281e+03  1.2194006120514673e+03  1.0754429280966324e+03  1.7414117463932430e+03  1.4597326125519533e+03  1.1664042813914843e+03  1.4665936332245763e+03  1.1616825340389212e+03  7.5069300746624060e+02  9.4230953938470907e+02  8.5735091124442897e+02  1.3060225695401173e+03  4.4865267911826794e+02  1.0734053650973794e+03  9.6770672439410407e+02  5.7952088132187896e+02  1.7248312871899084e+03  1.7545179133414090e+03  1.7544964578739707e+03  1.7534115227961895e+03  1.7211734422896175e+03  1.7531190075686018e+03  1.3997690476355535e+03  7.4905060128323328e+02  3.6218685022052409e+02  1.1139372123364610e+03  6.0782655678577498e+02  3.1591460143724487e+02  5.5860097482749245e+02  6.0587885073050813e+02  4.3629914665672925e+02  1.0889294051503282e+03  1.0656702257184584e+03  1.0537722304941865e+03  1.5353686723529706e+03  1.7423772276281318e+03  5.5704708096638024e+02  9.3638069460925215e+02  4.4225235601294258e+02  1.7425114407283565e+03  1.6073810824330592e+03  3.1547679787965723e+02  4.2227490484163098e+02  5.0826491682367583e+02  7.4293202639460469e+02  7.0727863398756404e+02  7.1472393433681475e+02  3.1552947732015980e+02  6.4130802629631285e+02  3.1504587812253988e+02  8.1881852219628661e+02  5.5027581152722973e+02  6.9647284127748981e+02  6.1516722069932621e+02  6.3909442948156857e+02  6.0541835873287721e+02  1.5917114298992065e+03  1.5914540239428254e+03  4.1625243141977728e+02  4.3845830612623405e+02  5.3860057109641991e+02  1.3964058107952440e+03  8.0427237421133316e+02  4.1139274362432224e+02  3.5536764086872506e+02  3.3549332154512450e+02  3.1341488341570567e+02  3.1314710819397089e+02  3.1561716329837861e+02  3.1310384648708646e+02  3.1393607436421365e+02  1.1279313269599525e+03  1.2435665497698990e+03  1.3597901154951892e+03  1.2781358864952763e+03  6.4536918296652550e+02  5.6418735957686192e+02  5.3257470632571801e+02  5.7524532133343973e+02  5.2059859157427888e+02  9.6865130200203134e+02  8.9403395213805311e+02  9.9903811701862469e+02  8.6256533667695612e+02  1.0981654053610685e+03  1.1725474872282052e+03  1.2600534760937906e+03  8.2728099441210873e+02  8.4211784837971118e+02  4.1690977936293945e+02  5.9494008152961089e+02  5.3499678955659522e+02  4.1991856637623027e+02  6.9719890360363468e+02  6.3358154636576842e+02  6.1209463844786126e+02  1.4581799738997252e+03  4.1280839078136574e+02  1.5922314279664836e+03  1.3036565809955462e+03  6.0460908321639079e+02  1.0167423964845725e+03  1.4200996567901677e+03  3.5207572206795464e+02  4.1643852034447741e+02  5.0319350399531220e+02  3.1587792531025678e+02  4.2073607768484879e+02  8.7504800766443384e+02  8.1718840218647813e+02  1.7418062008067602e+03  1.6221195911200641e+03  1.2131269019496353e+03  5.6824670821987422e+02  1.3047121799804306e+03  4.0347636993414199e+02  7.7610696356352628e+02  7.5185737366084129e+02  3.3610328413745344e+02  6.4783668458399745e+02  1.4913740707980696e+03  5.1084543953834088e+02  1.5992822918799441e+03  1.6308619364950791e+03  7.6856249336100279e+02  1.7219562241907972e+03  1.7522523589206237e+03  1.7532620184834952e+03  1.6373376112305846e+03  1.0309018180274438e+03  4.8916879536529785e+02  5.0484235337438690e+02  4.1474973542150502e+02  9.1810786800271831e+02  3.8063453126631038e+02  3.3653053523023283e+02  3.2350683845525595e+02  4.6236209001864574e+02  1.7253257407711669e+03  3.1648835050201041e+02  1.7214154856755292e+03  3.1648570473227181e+02  3.1649940368364793e+02  1.5546099437534629e+03  9.5224680030606032e+02  7.2802870403526970e+02  6.9471931763329383e+02  3.8246932445184206e+02  6.6862063372295245e+02  6.3364124433323207e+02  7.7816140551745605e+02  8.2492787304888373e+02  9.0052398762871383e+02  8.5828678324394195e+02  3.7187733287002948e+02  1.1738292297338553e+03  4.4940328605049712e+02  1.2569060864842752e+03  9.5072589919021198e+02  3.7847592050680191e+02  3.4866430670981862e+02  3.1525699837120914e+02  3.8766387180174888e+02  9.9133369280386250e+02  1.0139002682437061e+03  9.7412992200471308e+02  1.1538703375233683e+03  9.6640246396988596e+02  3.7762403623413240e+02  3.8017220780266052e+02  3.9536445023177748e+02  9.5037141826103255e+02  1.6420041420158029e+03  1.4283176849015915e+03  1.2814129718652380e+03  8.8387143814795672e+02  1.3723992612350128e+03  4.6238457671893934e+02  1.6380160058157110e+03  4.6412672487924942e+02  3.4499861203653461e+02  3.2291652375716728e+02  9.4482230664104748e+02  1.3019309943890485e+03  1.3125419281455356e+03  1.1892608051731297e+03  3.2956813216046078e+02  3.1889363358907349e+02  7.1763253543117366e+02  7.2220561686947303e+02  3.6801285896367096e+02  1.0419904713696690e+03  1.3662861628015210e+03  3.8457782975526789e+02  3.1578459950948979e+02  4.1155787547825906e+02  4.4900327896758665e+02  4.3289420608840851e+02  1.0342215500458669e+03  3.1592668954065601e+02  8.4651562535832909e+02  1.1544479866834106e+03  5.8701128954950377e+02  1.2193164931872711e+03  1.4388347489544506e+03  1.2679289441198262e+03  1.4508330961297002e+03  7.4667726485945605e+02  1.3678673735032919e+03  3.3761903970008029e+02  5.0701656751989816e+02  7.3360853382557741e+02  4.6267417999757657e+02  4.6585673962104386e+02  1.2121544833102764e+03  6.8193948158898468e+02  1.7256182331604655e+03  3.7789921356090719e+02  6.5322254791726243e+02  8.3832021108110780e+02  1.2505892430871861e+03  4.6763787312897421e+02  4.0633100552195373e+02  5.3764581930305553e+02  6.1781436189776400e+02  6.9553061647370885e+02  8.7558839519761727e+02  7.7331149972965216e+02  9.5927851793088848e+02  4.2172475094271920e+02  1.1030138301291249e+03  3.9517659566687962e+02  4.0277689815013105e+02  1.0281665063802900e+03  1.0421804934120016e+03  4.7524129787118926e+02  4.3756701819241704e+02  6.4290487151938885e+02  8.0177954954529048e+02  9.8651077731350586e+02  1.2404692567461898e+03  9.4833567029271455e+02  9.4052045145975740e+02  1.3944019065547145e+03  1.6440594088815126e+03  6.7993046904979462e+02  1.4540833847518813e+03  1.5457503991917611e+03  3.1569372320060103e+02  4.0569393306697759e+02  4.9038734063305628e+02  4.0147391212413578e+02  5.5161192689499842e+02  1.1072824853498523e+03  1.2544893746794598e+03  1.1298179571385499e+03  9.6812794839434264e+02  1.1674834683544998e+03  5.0366942817622822e+02  9.2107966677570744e+02  7.7576401200632631e+02  8.9223184679417523e+02  9.2880350218290857e+02  1.0040411929908702e+03  1.0037535305046099e+03  1.4567070232388733e+03  1.4264013681415518e+03  7.3608334091597237e+02  1.7395596874243029e+03  1.0820345960001862e+03  9.0078099038919322e+02  1.5090936092072686e+03  6.7371208133075334e+02  1.3799175355539492e+03  3.3264920492352576e+02  4.7932629535517435e+02  1.0104613873213586e+03  3.1485586499615050e+02  3.1538347044957470e+02  5.8319273368689051e+02  1.0579498488520605e+03  3.263