<?xml version="1.0"?>
<VTKFile type="UnstructuredGrid"  version="0.1"  >
<UnstructuredGrid>
<Piece  NumberOfPoints="1122" NumberOfCells="3198">
<Points>
<DataArray  type="Float64"  NumberOfComponents="3"  format="ascii">5.3 7.265 0  7.05 4.065 0  7.05 7.265 0  5.3 4.065 0  7.05 3.565 0  5.3 3.565 0  4.95 4.065 0  4.95 3.565 0  7.05 2.965 0  5.3 2.965 0  4.95 2.965 0  4.6 3.565 0  4.6 2.965 0  7.05 2.365 0  5.3 2.365 0  4.95 2.365 0  4.6 2.365 0  4.25 2.965 0  4.25 2.365 0  7.05 0 0  5.3 0 0  4.95 0 0  4.6 0 0  4.25 0 0  0 2.365 0  0 0 0  6.175 5.665 0  6.175 3.815 0  5.125 3.815 0  6.175 3.265 0  5.125 2.665 0  4.775 2.665 0  5.125 3.265 0  4.775 3.265 0  6.175 2.665 0  5.125 1.1825 0  4.775 1.1825 0  4.425 1.1825 0  4.425 2.665 0  6.175 1.1825 0  2.125 1.1825 0  7.05 5.888629622483688 0  5.3 5.441370377516312 0  6.210013736160064 4.065 0  6.175 3.565 0  5.3 3.870163890393343 0  4.95 3.759836109606658 0  6.175 2.965 0  5.3 2.712311099736245 0  4.95 2.665 0  4.6 2.665 0  4.95 3.265 0  5.3 3.312311099736244 0  4.6 3.217688900263754 0  6.175 2.365 0  5.3 1.1825 0  4.95 1.1825 0  4.6 1.1825 0  4.25 1.16962087603974 0  4.25 2.617688900263755 0  7.05 1.471030676090747 0  2.431857571898486 2.365 0  1.818142428101514 0 0  6.6125 4.865 0  6.629333272907139 3.685190493455103 0  5.713851351351352 3.423108108108108 0  5.7375 3.94 0  6.636148648648648 3.106891891891892 0  5.713851351351352 2.823108108108108 0  5.025580653828612 2.835433164865235 0  4.874419346171388 2.494566835134765 0  4.675580653828613 2.835433164865235 0  4.524419346171387 2.494566835134765 0  5.025580653828612 3.435433164865235 0  4.874419346171388 3.094566835134765 0  6.636148648648648 2.506891891891892 0  5.820468412007996 1.661624117486337 0  5.213442732999042 0.5848798184493331 0  5.036557267000958 1.780120181550667 0  4.863442732999042 0.5848798184493331 0  4.686557267000959 1.780120181550667 0  4.513442732999041 0.5848798184493331 0  3.1875 0.5912499999999999 0  7.05 4.976814811241844 0  6.6125 3.565 0  6.630006868080033 4.065 0  5.7375 3.565 0  5.755006868080033 4.065 0  6.6125 2.965 0  5.7375 2.965 0  4.95 2.815 0  5.125 2.965 0  4.95 2.515 0  4.800000000000001 2.365 0  4.6 2.815 0  4.775 2.965 0  4.6 2.515 0  4.449999999999999 2.365 0  4.95 3.415 0  5.125 3.565 0  4.95 3.114999999999999 0  6.6125 2.365 0  5.3 1.9275 0  5.3 0.5912500000000001 0  4.95 0.5912500000000001 0  4.95 1.77375 0  4.6 0.5912500000000001 0  4.6 1.77375 0  4.25 0.5848104380198699 0  3.034071214050757 0 0  6.83125 4.465 0  5.211822570533285 3.116161307657225 0  5.199644089736418 3.708365586090832 0  5.560234206003997 2.013312058743169 0  5.3 1.555 0  4.3375 1.77375 0  3.71875 0.295625 0  7.05 4.520907405620923 0  5.3 3.139999999999999 0  5.3 3.739999999999999 0  5.7375 2.365 0  5.080778633500479 1.481310090775334 0  4.25 1.76731043801987 0  3.642035607025378 0 0  4.95 1.478125 0  4.73077863350048 1.481310090775334 0  4.6 1.478125 0  4.38125 1.478125 0  4.25 1.468465657029805 0  1.0625 1.77375 0  0 1.1825 0  1.215928785949243 2.365 0  0.9090712140507571 0 0  3.340928785949243 2.365 0  5.3 6.353185188758156 0  5.7375 6.465 0  1.251926214046421 0.8638539258762323 0  2.998073785953579 1.501146074123768 0  6.6125 0.5912500000000001 0  6.314484661954626 0 0  7.05 0.7355153380453735 0  6.175 7.265 0  7.05 6.576814811241844 0  1.823893178923864 2.365 0  1.59375 1.478125 0  0 0.5912500000000001 0  2.426106821076136 0 0  2.65625 0.8868750000000001 0  5.3 4.753185188758156 0  6.384382461419411 6.63086506016126 0  5.965647764605047 4.698780141966616 0  5.95625 0.5512968727055005 0  3.573985453476257 1.146376094877751 0  0.6756920837505003 1.21855677338705 0  0 1.77375 0  0.5312499999999999 2.069375 0  0.6079643929746215 2.365 0  6.446593558696915 1.754199000482114 0  3.610596224419451 1.784975253492358 0  0.6394873570286449 0.5799959292452963 0  2.417022476128119 1.737785075476752 0  1.83297752387188 0.6272149245232482 0  6.39375 5.265000000000001 0  7.05 5.432722216862766 0  5.95625 6.065 0  5.3 5.897277783137234 0  1.363606821076136 0 0  2.886393178923864 2.365 0  5.807242330977314 0 0  5.66317075542392 5.097277783137233 0  6.531608295550142 6.093321366176391 0  6.39375 0.8868750000000001 0  7.05 1.10327300706806 0  1.519910982436554 1.97058461431516 0  2.730089017563446 0.3944153856848401 0  3.118321402239236 1.051513924837064 0  1.080031360230293 0.4321124510033665 0  1.131373342792352 1.313422525825128 0  3.170050834191505 1.932854926851105 0  2.299923182630591 0.5816821397526466 0  1.950076817369409 1.783317860247354 0  6.613181962233742 1.324697214951463 0  6.6125 7.265 0  7.05 6.920907405620921 0  5.51875 6.865 0  5.3 6.809092594379077 0  5.983458173428153 6.850120530156478 0  5.7375 0.9806135633003248 0  3.795464392974622 2.365 0  0.4545356070253785 0 0  5.707817604026098 5.669324080326772 0  6.382560485385842 4.479437374820383 0  7.05 1.918015338045373 0  2.588389785493746 1.326880192167154 0  1.703300758037187 1.049840817825812 0  3.81583399465085 0.749837075035683 0  0.3530001285220923 0.9165457830971103 0  5.7375 7.265 0  0.3230327290960819 1.478125 0  6.645222772803423 5.648779777756588 0  5.3 4.409092594379079 0  0.6966084743942642 1.616326964752643 0  5.95625 2.0342218763767 0  1.49184819442877 0.3932638652425394 0  2.659125375411175 2.045841681839123 0  5.614524271201718 0.3478746969228768 0  5.999107992102964 5.308994605056308 0  2.127875375411175 2.365 0  2.037600823622477 0.3085922016883884 0  3.93649851739085 2.000575559990484 0  3.906455196942886 1.319043266534772 0  0 0.295625 0  0.9119465894619322 2.365 0  0.7968749999999998 1.9215625 0  3.338053410538068 0 0  3.453125 0.4434374999999999 0  7.05 0.3677576690226868 0  6.83125 0.295625 0  6.682242330977314 0 0  6.668949774591622 6.886595444085661 0  5.68188834913787 4.441195406600733 0  6.758701711409929 5.204768514052305 0  5.59129828859007 6.125231485947695 0  6.163759209134029 4.993941590579597 0  6.233034970219983 6.300479647380988 0  6.703009859999504 6.429199314158878 0  5.609311330585206 1.36875 0  0.3587822425707757 0.3500213638980786 0  6.721382088515962 0.9965688100980222 0  2.209060623332511 2.022170427178749 0  5.3 5.097277783137233 0  7.05 6.232722216862767 0  6.059295437662608 4.370887739173418 0  0.8690637789301248 0.8872863262959064 0  3.466735784094473 0.8089436482612071 0  3.295985566969465 1.339922954220738 0  6.39375 2.096484771253884 0  6.711845829197576 1.970371788042478 0  6.060173353037894 0.8687877612331139 0  6.301258297484685 6.955053672984521 0  6.754921001691115 1.626730465232963 0  6.49836349646597 0.2780484381883498 0  6.284029928285962 0.5769414109938407 0  6.06086349646597 0 0  5.643646453505415 4.768412579276713 0  5.655197341664164 0.6682895817033545 0  2.872957907069126 1.801096788690002 0  4.6 0.295625 0  4.906721366499522 0.2924399092246666 0  4.55672136649952 0.2924399092246666 0  4.95 0.295625 0  3.568196589461933 2.1179624530524 0  3.620056836640555 1.464083854703579 0  3.927107481851438 1.660653323618258 0  0.7896275243076972 0.2971318722880981 0  6.12561317803929 1.761463214735561 0  6.326880341955087 1.460708780209755 0  1.429466162327612 1.207949778943681 0  2.296927843562433 1.446513085688053 0  1.980950224264427 0.9038259360937273 0  1.52702416133256 0.7076527164671081 0  0.4258514322303463 1.77420426839212 0  1.859375 1.3303125 0  2.390625 1.0346875 0  5.3 0.8868750000000001 0  5.169221366499521 0.8836899092246666 0  4.95 0.8868750000000001 0  4.819221366499521 0.8836899092246666 0  4.6 0.8868750000000001 0  4.46922136649952 0.8836899092246666 0  4.25 0.8772156570298049 0  6.140746550782823 0.3007326298726944 0  6.83125 3.565 0  7.05 3.265 0  6.83966663645357 3.625095246727552 0  7.05 2.665 0  1.214780807536237 2.049765590706595 0  3.186062312294412 0.276090769979388 0  4.29375 2.069375 0  4.6 2.069375 0  4.25 2.066155219009935 0  4.643278633500479 2.072560090775334 0  1.328125 1.6259375 0  3.946017803512689 0 0  3.984375 0.1478125 0  2.122124624588825 0 0  2.921875 0.7390625 0  0.3039821964873107 2.365 0  0.2656249999999999 2.2171875 0  1.519910982436554 2.365 0  2.730089017563446 0 0  3.267848714624348 1.643786705677805 0  3.962128140614412 0.4810864575242905 0  6.088735565830333 6.566440677959418 0  2.87287907903055 1.226769242480236 0  5.997734206003997 1.422062058743168 0  2.335585913229898 0.2848909091867997 0  1.915727811171581 2.080394075538645 0  5.3 0.295625 0  5.256721366499521 0.2924399092246666 0  0 1.478125 0  0 0.8868750000000001 0  4.95 2.069375 0  4.993278633500479 2.072560090775334 0  0 2.069375 0  4.25 0.2924052190099349 0  3.841572739148465 1.037556133343355 0  6.247685367118326 6.002851795106343 0  5.596179388183639 5.390271738108119 0  0.361226814135335 0.633338030484755 0  0.390270021626804 1.200123785848559 0  6.341029012534215 4.765551947817491 0  5.555765280690617 2.58528286847223 0  6.818326003308544 6.060675919673228 0  5.628125 6.665 0  5.3 6.581138891568616 0  6.721875 4.665 0  7.05 4.748861108431384 0  2.729013460599041 1.564984855461338 0  1.766005998581615 0.3591878959166037 0  6.83125 7.265 0  5.527503434040016 4.065 0  5.51875 4.0025 0  6.414708980099403 5.79017371349605 0  5.555816552627036 1.629876120346811 0  6.405574324324323 3.185945945945946 0  6.405574324324323 2.585945945945946 0  5.944425675675676 3.344054054054054 0  5.95625 2.965 0  5.944425675675676 2.744054054054054 0  6.83125 2.965 0  6.843074324324323 3.035945945945945 0  0.9539220190930711 1.522188675922875 0  5.875323973896693 0.2985022980005431 0  6.284375 5.465 0  1.28446357176077 0.6008092986991798 0  2.93210457621998 2.068557687752316 0  7.05 2.141507669022687 0  6.420010302120049 4.065 0  6.40216663645357 3.750095246727552 0  6.39375 3.565 0  5.846875 6.265 0  0.2127682824147084 1.9215625 0  0.607699940173331 0.8431476678143333 0  1.270397973338397 0.2479363044321548 0  5.826861590721315 1.225363214864182 0  5.895744270062652 4.959765766084354 0  1.590874624588825 0 0  5.553621165488657 0 0  3.113660982436554 2.365 0  1.050077073521563 0.7053514850398296 0  5.
[...]
<CellData  Scalars="f">
<DataArray  type="Float64"  Name="f"  format="ascii">13 0 12 0 0 11 10 0 12 11 0 0 13 0 0 14 0 0 0 0 10 9 0 0 0 0 0 0 0 0 14 15 15 0 0 0 16 0 0 8 9 0 0 0 0 0 0 0 0 0 0 0 0 0 0 0 16 17 0 0 0 18 17 7 0 0 0 8 0 0 0 0 0 0 0 0 0 0 0 0 0 0 0 0 0 0 0 0 0 0 0 0 0 18 0 19 0 20 0 19 0 0 0 0 6 0 7 6 5 0 0 0 0 4 5 0 0 0 0 4 3 0 0 0 0 3 0 0 2 1 0 20 1 2 0 0 0 0 0 0 0 0 0 0 0 0 0 0 0 0 0 0 0 0 0 0 0 0 0 0 0 0 0 0 0 0 0 0 0 0 0 0 0 0 0 0 0 0 0 0 0 0 0 0 0 0 0 0 0 0 0 0 0 0 0 0 0 0 0 0 0 0 0 0 0 0 0 0 0 0 0 0 0 0 0 0 0 0 0 0 0 0 0 0 0 0 11 0 11 0 0 13 0 13 0 0 0 0 0 0 0 0 0 0 0 0 0 0 0 0 0 0 0 0 0 15 0 0 0 0 0 0 0 0 0 0 0 0 0 0 0 0 0 0 0 0 0 0 0 0 0 0 0 0 0 0 0 17 17 0 0 0 0 0 0 0 0 0 0 0 0 0 0 0 0 0 0 0 0 0 0 0 0 0 0 19 19 0 7 0 7 0 20 0 20 0 0 2 0 2 0 0 0 0 0 0 0 0 0 0 0 0 0 0 0 0 0 0 0 0 0 0 0 0 0 0 0 0 0 0 0 0 0 0 0 0 0 0 0 0 0 0 0 0 0 0 0 0 0 0 0 0 0 0 0 0 0 0 0 0 0 0 0 0 0 0 0 0 0 0 0 0 0 0 0 0 0 0 0 0 0 0 0 0 0 0 0 0 0 0 0 0 0 0 0 0 0 0 0 0 11 11 0 0 0 0 0 0 0 0 0 0 0 0 0 0 0 0 0 0 0 0 0 0 0 0 0 0 0 0 0 0 0 0 0 0 0 0 0 0 0 0 0 0 0 0 0 0 0 0 0 0 0 0 0 0 0 0 0 0 0 0 0 0 0 0 0 0 0 0 0 0 0 0 0 0 0 0 0 0 0 0 0 0 0 0 0 0 0 0 0 0 0 0 0 0 0 0 0 0 0 0 2 2 0 0 0 0 0 0 0 0 0 0 0 0 0 0 0 0 0 0 0 0 0 0 0 0 0 0 0 0 0 0 0 0 0 0 0 11 0 11 0 0 0 0 0 0 0 0 0 0 0 0 0 0 0 0 0 0 0 0 0 0 0 0 2 0 2 0 0 0 0 0 0 0 0 0 0 0 0 0 0 0 0 0 0 0 0 0 0 0 0 0 0 0 0 0 0 0 0 0 0 0 1 1 0 20 0 20 2 0 2 0 0 20 0 20 13 13 0 0 0 0 0 0 0 0 0 0 0 0 0 0 0 0 0 0 0 0 0 0 0 0 0 0 6 0 6 0 0 7 7 0 0 12 0 12 0 0 0 11 11 0 20 20 0 0 0 0 0 0 0 1 1 0 0 2 2 0 0 0 0 0 0 13 13 0 0 0 0 0 0 0 0 0 0 0 0 0 0 0 0 0 0 0 0 0 0 0 0 0 0 0 0 0 0 0 0 0 0 0 1 1 0 0 0 0 0 0 0 20 0 20 0 0 0 0 0 0 0 0 0 0 0 0 0 0 0 0 0 0 0 0 0 0 0 0 0 0 0 0 0 0 0 0 0 0 0 11 0 11 0 0 0 0 0 0 0 0 13 0 13 0 2 2 0 0 20 0 20 0 6 6 0 0 0 0 0 0 0 0 0 0 0 0 0 0 0 0 0 0 0 0 0 0 7 7 0 0 0 0 0 0 0 0 0 0 0 0 0 0 0 0 0 0 0 0 0 0 0 0 0 0 0 0 0 0 0 0 0 0 0 0 0 0 0 0 0 0 0 0 0 0 0 0 0 0 0 0 0 0 0 0 0 0 0 12 12 0 0 11 0 11 0 0 0 0 0 0 0 0 13 0 13 0 0 0 0 0 0 0 0 0 0 0 0 0 20 20 0 0 2 2 0 0 0 0 0 0 0 0 0 0 0 0 0 0 0 0 7 7 0 0 0 0 0 0 0 0 0 0 0 0 0 0 0 0 0 0 0 0 0 0 0 0 0 0 0 12 12 0 0 0 0 0 0 0 0 0 0 0 0 0 0 0 0 0 13 13 0 0 0 0 0 0 0 0 0 0 0 0 0 0 0 0 0 0 0 0 0 0 0 0 0 0 0 0 0 0 0 0 0 0 0 0 0 0 0 20 20 0 0 0 0 0 0 0 0 0 0 0 0 0 0 0 0 0 0 0 0 0 0 1 1 0 20 20 0 0 0 0 0 0 0 2 0 2 0 0 0 0 0 0 0 7 0 7 0 0 0 0 0 0 6 6 0 0 0 0 0 0 0 0 0 0 0 0 0 0 0 0 0 0 0 0 0 0 0 0 0 0 0 0 0 0 0 0 0 0 0 0 0 0 0 0 0 0 0 0 0 0 0 0 0 0 0 0 0 0 0 0 0 0 0 0 0 0 0 0 0 0 0 0 0 0 0 0 0 0 0 13 0 13 0 0 11 11 0 0 0 0 0 0 0 0 0 0 0 0 0 0 0 0 0 0 0 0 0 0 0 0 0 0 0 0 0 0 0 0 0 0 0 0 0 0 0 0 0 0 0 0 0 0 0 0 0 0 0 0 0 0 0 0 0 0 0 0 0 0 0 0 0 0 0 0 0 0 0 0 0 0 0 0 0 0 0 0 0 0 0 0 0 0 0 0 0 0 0 0 0 0 0 0 0 0 0 0 0 0 0 0 0 0 0 0 0 0 0 0 0 0 0 0 0 0 0 0 0 0 0 0 0 0 0 0 0 0 0 0 0 0 0 0 0 0 0 0 0 0 0 0 0 0 0 0 0 0 0 0 0 0 0 0 0 0 0 0 0 0 0 0 0 0 0 0 0 0 0 0 0 0 0 0 0 0 0 0 0 0 0 0 0 0 0 0 0 0 0 0 0 0 0 0 0 0 0 0 0 0 0 0 0 0 0 0 0 0 0 0 0 0 0 0 0 0 0 0 0 0 0 0 0 0 0 0 0 0 0 0 0 0 0 0 0 0 0 0 0 0 0 0 0 0 0 9 0 9 0 0 0 8 0 0 8 0 0 0 0 0 0 0 0 0 0 0 0 0 0 0 0 0 0 0 0 0 0 0 0 0 0 0 0 0 0 0 0 0 0 0 0 0 0 0 0 0 0 0 2 0 2 0 0 0 0 0 2 2 0 0 0 0 0 0 0 0 0 0 20 0 20 0 0 0 0 0 0 20 20 0 0 2 2 0 0 0 0 0 0 0 0 0 0 0 0 0 0 0 0 0 0 0 0 0 0 0 0 0 0 0 0 0 0 0 0 0 0 0 0 0 0 0 0 0 0 0 0 0 0 0 0 0 0 0 0 0 0 0 1 1 0 0 1 1 0 0 0 0 0 0 0 0 0 0 0 0 0 0 1 1 0 0 0 0 0 0 0 0 0 0 0 0 0 0 0 0 0 0 0 0 0 0 0 0 0 0 0 0 0 0 0 0 0 0 0 0 0 0 0 0 0 0 0 0 0 0 0 0 0 0 0 0 0 0 0 0 0 0 0 0 0 0 0 0 0 0 0 0 0 0 0 0 0 0 0 0 0 0 0 0 0 0 0 0 0 0 0 0 0 0 0 0 0 0 0 0 0 0 0 0 0 0 0 0 0 0 0 0 0 0 0 0 0 0 0 0 0 0 0 0 0 0 0 0 0 0 0 0 0 0 0 0 0 0 0 0 0 0 0 0 0 0 0 0 0 0 0 0 0 0 0 0 0 0 0 0 0 0 0 0 0 0 0 0 0 0 0 0 0 0 0 0 0 0 0 0 0 0 0 0 0 0 0 0 0 0 0 0 0 0 0 0 0 0 0 0 0 0 0 0 0 0 0 0 0 0 0 0 0 0 0 0 0 0 0 0 0 0 20 0 20 0 0 0 0 0 0 0 0 0 0 0 0 0 0 0 0 0 0 0 0 0 0 0 0 0 0 0 2 0 0 0 0 0 10 0 0 0 0 0 0 0 0 0 0 0 0 0 0 0 0 0 0 0 0 0 0 0 0 0 0 0 0 0 0 0 0 0 0 0 0 0 0 0 0 0 0 0 0 0 0 0 0 0 0 0 0 0 0 0 0 0 0 0 0 0 0 0 0 0 0 0 0 0 0 0 0 0 0 0 0 0 0 0 0 0 0 0 0 0 0 0 0 0 0 0 0 0 0 0 11 0 0 0 0 0 0 0 0 0 0 0 0 0 0 0 0 0 0 0 0 0 0 0 0 0 0 0 0 0 0 0 0 0 0 0 0 0 0 0 0 0 0 0 0 0 0 0 0 0 0 0 0 0 0 0 0 0 0 0 0 0 0 0 0 0 0 0 0 0 0 0 0 0 0 0 0 0 0 0 0 0 0 0 0 0 0 0 0 0 0 0 0 13 0 0 0 0 0 0 0 0 0 0 0 0 0 0 0 0 0 0 0 0 0 0 0 0 0 0 0 0 0 0 0 0 0 0 0 0 0 0 0 0 0 0 0 0 0 0 0 0 0 0 0 0 0 0 0 0 0 0 0 0 0 0 0 0 0 0 0 0 0 0 0 0 0 0 0 0 0 0 0 0 0 0 0 0 0 0 0 0 0 13 0 0 0 0 0 0 0 0 0 0 0 0 0 0 0 0 0 0 0 0 0 0 0 0 0 0 0 0 0 0 0 0 0 0 0 0 0 0 0 0 0 0 0 0 0 0 0 0 0 0 0 0 0 0 0 0 0 0 0 0 0 0 0 0 0 0 0 0 0 0 0 0 0 0 0 0 0 0 0 0 0 0 0 0 0 0 0 0 0 0 0 0 0 0 0 0 0 0 0 0 0 0 0 0 0 0 0 0 0 0 0 0 0 0 0 0 0 0 0 0 0 0 0 0 0 0 0 0 0 0 0 0 0 0 0 0 0 0 0 0 0 0 0 0 0 0 0 0 0 0 0 0 0 0 0 0 0 0 0 0 0 0 0 0 0 0 0 0 0 0 0 0 0 0 0 0 0 0 0 0 0 0 0 0 0 0 0 0 0 0 0 0 0 0 0 0 0 0 0 0 0 0 0 0 0 0 0 0 0 0 0 0 0 0 0 0 0 0 0 0 0 0 0 0 0 0 0 0 0 0 0 0 0 0 0 0 0 0 0 0 0 0 0 0 0 0 0 0 0 0 0 0 0 0 0 0 0 0 0 0 0 0 0 0 0 0 0 0 0 0 0 0 0 0 0 0 0 0 0 0 0 0 0 0 0 0 0 0 0 0 0 0 0 0 0 0 0 0 0 0 0 0 0 0 0 0 0 0 0 0 0 0 0 0 0 0 0 0 0 0 0 0 0 0 0 0 0 0 0 0 0 0 0 0 0 0 0 0 0 0 0 0 0 0 0 0 0 0 0 0 0 0 0 0 0 0 0 0 0 0 0 0 0 0 0 0 0 0 0 0 0 0 0 0 0 0 0 0 0 0 0 0 0 0 0 0 0 0 0 0 0 0 0 0 0 0 0 0 0 0 0 0 0 0 0 0 0 0 0 0 0 0 0 0 0 0 0 0 0 0 0 0 0 0 0 0 0 0 0 0 0 0 0 0 0 0 0 0 0 0 0 0 0 0 0 0 0 0 0 0 0 0 0 0 0 0 0 0 0 0 0 0 0 0 0 0 0 0 0 0 0 0 0 0 0 0 0 0 0 0 0 0 0 0 0 0 0 0 0 0 0 0 0 0 0 0 0 0 0 0 0 0 0 0 0 0 0 0 0 0 0 0 0 0 0 0 0 0 0 0 0 0 0 0 0 0 0 0 0 0 0 0 0 0 0 0 0 0 0 0 0 0 0 0 0 0 0 0 0 0 0 0 0 0 0 0 0 0 0 0 0 0 0 0 0 0 0 0 0 0 0 0 0 0 0 0 0 0 0 0 0 0 0 0 0 0 0 0 0 0 0 0 0 0 0 0 0 0 0 0 0 0 0 0 0 0 0 0 0 0 0 0 0 0 0 0 0 0 0 0 0 0 0 0 0 0 0 0 0 0 14 0 0 0 0 0 0 0 0 0 0 0 0 0 0 0 0 0 0 0 0 0 0 0 0 0 0 0 0 0 0 0 0 0 0 0 0 0 0 0 0 0 0 0 0 0 0 0 0 0 0 0 0 0 0 0 0 0 0 0 0 0 0 0 0 0 0 0 0 0 0 0 0 0 0 0 0 0 0 0 0 0 0 0 0 0 0 0 0 0 0 0 0 0 0 0 0 0 0 0 0 0 0 0 0 0 0 0 0 0 0 0 0 0 0 0 0 0 0 0 0 0 0 0 0 0 0 0 0 0 0 0 0 0 0 0 0 0 0 0 0 0 0 0 0 0 0 0 0 0 0 0 0 0 0 0 0 0 0 0 0 0 0 0 0 0 0 0 0 0 0 0 0 0 0 0 0 0 0 0 0 0 0 0 0 0 0 0 0 0 0 0 0 0 0 0 0 0 0 0 0 0 0 0 0 0 0 0 0 0 0 0 0 0 0 0 0 0 0 0 0 0 0 0 0 0 0 0 0 0 0 0 0 0 0 0 0 0 0 0 0 0 0 0 0 0 0 0 0 0 0 0 0 0 0 0 0 0 0 0 0 0 0 0 0 0 0 0 0 0 0 0 0 0 0 0 0 0 0 0 0 0 0 0 0 0 0 0 0 0 0 0 0 0 0 0 0 0 0 0 0 0 0 0 0 0 0 0 0 0 0 0 0 0 0 0 0 0 0 0 0 0 0 0 0 0 0 0 0 0 0 0 0 0 0 0 0 0 0 0 0 0 0 0 0 0 0 0 0 0 0 0 0 0 0 0 0 0 0 0 0 0 0 0 0 0 0 0 0 0 0 0 0 0 0 0 0 0 0 0 0 0 0 0 0 0 0 0 0 0 0 0 0 0 0 0 0 0 0 0 0 0 0 0 0 0 0 0 0 0 0 0 0 0 0 0 0 0 0 0 0 0 0 0 0 0 0 0 0 0 0 0 0 0 </DataArray>
</CellData>
</Piece>
</UnstructuredGrid>
</VTKFile>